
    -----------------------------------------------------------------------
          Psi4: An Open-Source Ab Initio Electronic Structure Package
                               Psi4 1.3.2 release

                         Git: Rev {HEAD} ecbda83 


    R. M. Parrish, L. A. Burns, D. G. A. Smith, A. C. Simmonett,
    A. E. DePrince III, E. G. Hohenstein, U. Bozkaya, A. Yu. Sokolov,
    R. Di Remigio, R. M. Richard, J. F. Gonthier, A. M. James,
    H. R. McAlexander, A. Kumar, M. Saitow, X. Wang, B. P. Pritchard,
    P. Verma, H. F. Schaefer III, K. Patkowski, R. A. King, E. F. Valeev,
    F. A. Evangelista, J. M. Turney, T. D. Crawford, and C. D. Sherrill,
    J. Chem. Theory Comput. 13(7) pp 3185--3197 (2017).
    (doi: 10.1021/acs.jctc.7b00174)


                         Additional Contributions by
    P. Kraus, H. Kruse, M. H. Lechner, M. C. Schieber, R. A. Shaw,
    A. Alenaizan, R. Galvelis, Z. L. Glick, S. Lehtola, and J. P. Misiewicz

    -----------------------------------------------------------------------


    Psi4 started on: Monday, 21 September 2020 09:31AM

    Process ID: 45434
    Host:       FACC02D75Y4MD6T.tld
    PSIDATADIR: /Users/blais.ch/anaconda3/envs/rmg_env/share/psi4
    Memory:     500.0 MiB
    Threads:    1
    
  ==> Input File <==

--------------------------------------------------------------------------
memory 1024 mb

molecule mol {
0 2
C 0.00000000 0.00000000 0.00000000
H -1.00458947 -0.58000000 0.00000000
H 1.00458947 -0.58000000 0.00000000
H 0.00000000 1.16000000 0.00000000

}


set {
  scf_type DIRECT
  basis 6-31G(d_p)
  reference uks
  geom_maxiter 50
  print 3
}

optimize('b3lyp')
scf_e, wfn=frequencies('b3lyp', return_wfn=True, dertype=1)
wfn.hessian().print_out()
--------------------------------------------------------------------------

  Memory set to 976.562 MiB by Python driver.
gradient() will perform analytic gradient computation.

*** tstart() called on FACC02D75Y4MD6T.tld
*** at Mon Sep 21 09:31:16 2020

   => Loading Basis Set <=

    Name: 6-31G(D_P)
    Role: ORBITAL
    Keyword: BASIS
    atoms 1   entry C          line   115 file /Users/blais.ch/anaconda3/envs/rmg_env/share/psi4/basis/6-31g_d_p_.gbs 
    atoms 2-4 entry H          line    44 file /Users/blais.ch/anaconda3/envs/rmg_env/share/psi4/basis/6-31g_d_p_.gbs 


         ---------------------------------------------------------
                                   SCF
               by Justin Turney, Rob Parrish, Andy Simmonett
                          and Daniel G. A. Smith
                              UKS Reference
                        1 Threads,    976 MiB Core
         ---------------------------------------------------------

  ==> Geometry <==

    Molecular point group: c2v
    Full point group: D1h

    Geometry (in Angstrom), charge = 0, multiplicity = 2:

       Center              X                  Y                   Z               Mass       
    ------------   -----------------  -----------------  -----------------  -----------------
         C            0.000000000000     0.000000000000     0.000000000000    12.000000000000
         H            0.000000000000     0.000000000000    -1.160000001394     1.007825032230
         H           -0.000000000000     1.004589468792     0.580000000697     1.007825032230
         H            0.000000000000    -1.004589468792     0.580000000697     1.007825032230

           C
              BASIS           6-31G(D_P)           a2828f8bd65c52d276d3a5c7992328305af36e8a
           H
              BASIS           6-31G(D_P)           902186d0f3205710946c2c15d2c68458d6f6cc2a
           H
              BASIS           6-31G(D_P)           902186d0f3205710946c2c15d2c68458d6f6cc2a
           H
              BASIS           6-31G(D_P)           902186d0f3205710946c2c15d2c68458d6f6cc2a

  Running in c2v symmetry.

  Rotational constants: A =      8.28713  B =      8.28713  C =      4.14356 [cm^-1]
  Rotational constants: A = 248441.88767  B = 248441.88727  C = 124220.94374 [MHz]
  Nuclear repulsion =    9.001509998948746

  Charge       = 0
  Multiplicity = 2
  Electrons    = 9
  Nalpha       = 5
  Nbeta        = 4

  ==> Algorithm <==

  SCF Algorithm Type is DIRECT.
  DIIS enabled.
  MOM disabled.
  Fractional occupation disabled.
  Guess Type is SAD.
  Energy threshold   = 1.00e-08
  Density threshold  = 1.00e-08
  Integral threshold = 0.00e+00

  ==> Primary Basis <==

  -AO BASIS SET INFORMATION:
    Name                   = 6-31G(D_P)
    Blend                  = 6-31G(D_P)
    Total number of shells = 15
    Number of primitives   = 30
    Number of AO           = 30
    Number of SO           = 30
    Maximum AM             = 2
    Spherical Harmonics    = FALSE

  -Contraction Scheme:
    Atom   Type   All Primitives // Shells:
   ------ ------ --------------------------
       1     C     10s 4p 1d // 3s 2p 1d 
       2     H     4s 1p // 2s 1p 
       3     H     4s 1p // 2s 1p 
       4     H     4s 1p // 2s 1p 

  ==> AO Basis Functions <==

    [ 6-31G(D_P) ]
    cartesian
    ****
    C   1
    S   6 1.00
                      3047.52490000           0.00183470
                       457.36951000           0.01403730
                       103.94869000           0.06884260
                        29.21015500           0.23218440
                         9.28666300           0.46794130
                         3.16392700           0.36231200
    S   3 1.00
                         7.86827240          -0.11933240
                         1.88128850          -0.16085420
                         0.54424930           1.14345640
    P   3 1.00
                         7.86827240           0.06899910
                         1.88128850           0.31642400
                         0.54424930           0.74430830
    S   1 1.00
                         0.16871440           1.00000000
    P   1 1.00
                         0.16871440           1.00000000
    D   1 1.00
                         0.80000000           1.00000000
    ****
    H   2
    S   3 1.00
                        18.73113700           0.03349460
                         2.82539370           0.23472695
                         0.64012170           0.81375733
    S   1 1.00
                         0.16127780           1.00000000
    P   1 1.00
                         1.10000000           1.00000000
    ****
    H   3
    S   3 1.00
                        18.73113700           0.03349460
                         2.82539370           0.23472695
                         0.64012170           0.81375733
    S   1 1.00
                         0.16127780           1.00000000
    P   1 1.00
                         1.10000000           1.00000000
    ****

  ==> DFT Potential <==

   => Composite Functional: B3LYP <= 

    B3LYP Hyb-GGA Exchange-Correlation Functional

    P. J. Stephens, F. J. Devlin, C. F. Chabalowski, and M. J. Frisch, J. Phys. Chem. 98, 11623 (1994)

    Deriv               =              1
    GGA                 =           TRUE
    Meta                =          FALSE

    Exchange Hybrid     =           TRUE
    MP2 Hybrid          =          FALSE

   => Exchange Functionals <=

    0.0800   Slater exchange
    0.7200         Becke 88

   => Exact (HF) Exchange <=

    0.2000               HF 

   => Correlation Functionals <=

    0.1900   Vosko, Wilk & Nusair (VWN5_RPA)
    0.8100   Lee, Yang & Parr

   => XC_HYB_GGA_XC_B3LYP Functional <=

    B3LYP
    P. J. Stephens, F. J. Devlin, C. F. Chabalowski, and M. J. Frisch, J. Phys. Chem. 98, 11623 (1994)
    GGA   =           TRUE
    Meta  =          FALSE
    LRC   =          FALSE
    Alpha =   1.000000E+00
    Omega =   0.000000E+00

    > Parameters <


   => Molecular Quadrature <=

    Radial Scheme          =       TREUTLER
    Pruning Scheme         =           FLAT
    Nuclear Scheme         =       TREUTLER

    BS radius alpha        =              1
    Pruning alpha          =              1
    Radial Points          =             75
    Spherical Points       =            302
    Total Points           =          87826
    Total Blocks           =            735
    Max Points             =            255
    Max Functions          =             30

   => Loading Basis Set <=

    Name: (6-31G(D_P) AUX)
    Role: JKFIT
    Keyword: DF_BASIS_SCF
    atoms 1   entry C          line   121 file /Users/blais.ch/anaconda3/envs/rmg_env/share/psi4/basis/cc-pvdz-jkfit.gbs 
    atoms 2-4 entry H          line    51 file /Users/blais.ch/anaconda3/envs/rmg_env/share/psi4/basis/cc-pvdz-jkfit.gbs 

  Starting with a DF guess...

  ==> Pre-Iterations <==

   -------------------------------------------------------
    Irrep   Nso     Nmo     Nalpha   Nbeta   Ndocc  Nsocc
   -------------------------------------------------------
     A1        15      15       0       0       0       0
     A2         2       2       0       0       0       0
     B1         5       5       0       0       0       0
     B2         8       8       0       0       0       0
   -------------------------------------------------------
    Total      30      30       5       4       4       1
   -------------------------------------------------------

  ==> Integral Setup <==

  DFHelper Memory: AOs need 0.001 GiB; user supplied 0.642 GiB. Using in-core AOs.

  ==> MemDFJK: Density-Fitted J/K Matrices <==

    J tasked:                   Yes
    K tasked:                   Yes
    wK tasked:                   No
    OpenMP threads:               1
    Memory [MiB]:               657
    Algorithm:                 Core
    Schwarz Cutoff:           1E-12
    Mask sparsity (%):       0.0000
    Fitting Condition:        1E-10

   => Auxiliary Basis Set <=

  -AO BASIS SET INFORMATION:
    Name                   = (6-31G(D_P) AUX)
    Blend                  = CC-PVDZ-JKFIT
    Total number of shells = 51
    Number of primitives   = 51
    Number of AO           = 156
    Number of SO           = 156
    Maximum AM             = 3
    Spherical Harmonics    = FALSE

  -Contraction Scheme:
    Atom   Type   All Primitives // Shells:
   ------ ------ --------------------------
       1     C     10s 7p 5d 2f // 10s 7p 5d 2f 
       2     H     4s 3p 2d // 4s 3p 2d 
       3     H     4s 3p 2d // 4s 3p 2d 
       4     H     4s 3p 2d // 4s 3p 2d 

  ==> AO Basis Functions <==

    [ (6-31G(D_P) AUX) ]
    cartesian
    ****
    C   1
    S   1 1.00
                      1113.98677190           1.00000000
    S   1 1.00
                       369.16234180           1.00000000
    S   1 1.00
                       121.79275232           1.00000000
    S   1 1.00
                        48.12711454           1.00000000
    S   1 1.00
                        20.36507400           1.00000000
    S   1 1.00
                         8.08835969           1.00000000
    S   1 1.00
                         2.50686566           1.00000000
    S   1 1.00
                         1.24385374           1.00000000
    S   1 1.00
                         0.48449900           1.00000000
    S   1 1.00
                         0.19185160           1.00000000
    P   1 1.00
                       102.99176249           1.00000000
    P   1 1.00
                        28.13259401           1.00000000
    P   1 1.00
                         9.83643182           1.00000000
    P   1 1.00
                         3.34905450           1.00000000
    P   1 1.00
                         1.49476186           1.00000000
    P   1 1.00
                         0.57690109           1.00000000
    P   1 1.00
                         0.20320063           1.00000000
    D   1 1.00
                        10.59406836           1.00000000
    D   1 1.00
                         3.59971954           1.00000000
    D   1 1.00
                         1.33556911           1.00000000
    D   1 1.00
                         0.51949765           1.00000000
    D   1 1.00
                         0.19954125           1.00000000
    F   1 1.00
                         1.19486634           1.00000000
    F   1 1.00
                         0.41586634           1.00000000
    ****
    H   2
    S   1 1.00
                         9.53024933           1.00000000
    S   1 1.00
                         1.91745062           1.00000000
    S   1 1.00
                         0.68424049           1.00000000
    S   1 1.00
                         0.28413256           1.00000000
    P   1 1.00
                         2.91332320           1.00000000
    P   1 1.00
                         1.26212054           1.00000000
    P   1 1.00
                         0.50199776           1.00000000
    D   1 1.00
                         2.31353291           1.00000000
    D   1 1.00
                         0.71290724           1.00000000
    ****
    H   3
    S   1 1.00
                         9.53024933           1.00000000
    S   1 1.00
                         1.91745062           1.00000000
    S   1 1.00
                         0.68424049           1.00000000
    S   1 1.00
                         0.28413256           1.00000000
    P   1 1.00
                         2.91332320           1.00000000
    P   1 1.00
                         1.26212054           1.00000000
    P   1 1.00
                         0.50199776           1.00000000
    D   1 1.00
                         2.31353291           1.00000000
    D   1 1.00
                         0.71290724           1.00000000
    ****

  Cached 100.0% of DFT collocation blocks in 0.073 [GiB].

  Minimum eigenvalue in the overlap matrix is 3.3578521450E-02.
  Using Symmetric Orthogonalization.

  SCF Guess: Superposition of Atomic Densities via on-the-fly atomic UHF.

DIIS coefficients:  1.000 
DIIS coefficients:  0.194  0.806 
DIIS coefficients:  -0.009  0.082  0.927 
DIIS coefficients:  0.000  -0.007  -0.078  1.084 
DIIS coefficients:  -0.000  0.001  0.012  -0.165  1.153 
DIIS coefficients:  1.000 
DIIS coefficients:  -0.068  1.068 
DIIS coefficients:  -0.000  -0.002  1.002 
DIIS coefficients:  -0.000  -0.000  -0.001  1.001 
  ==> Iterations <==

                           Total Energy        Delta E     RMS |[F,P]|

   @DF-UKS iter SAD:   -39.32845973328563   -3.93285e+01   0.00000e+00 
DIIS coefficients:  1.000 
    Occupation by irrep:
             A1    A2    B1    B2 
    DOCC [     3,    0,    0,    1 ]
    SOCC [     0,    0,    1,    0 ]

   @DF-UKS iter   1:   -39.74961232930669   -4.21153e-01   2.13508e-02 DIIS
DIIS coefficients:  0.507  0.493 
    Occupation by irrep:
             A1    A2    B1    B2 
    DOCC [     3,    0,    0,    1 ]
    SOCC [     0,    0,    1,    0 ]

   @DF-UKS iter   2:   -39.74205675020032    7.55558e-03   2.19152e-02 DIIS
DIIS coefficients:  -0.029  -0.017  1.046 
    Occupation by irrep:
             A1    A2    B1    B2 
    DOCC [     3,    0,    0,    1 ]
    SOCC [     0,    0,    1,    0 ]

   @DF-UKS iter   3:   -39.83224376185521   -9.01870e-02   4.40431e-04 DIIS
DIIS coefficients:  0.001  -0.004  -0.328  1.332 
    Occupation by irrep:
             A1    A2    B1    B2 
    DOCC [     3,    0,    0,    1 ]
    SOCC [     0,    0,    1,    0 ]

   @DF-UKS iter   4:   -39.83232017526969   -7.64134e-05   1.28122e-04 DIIS
DIIS coefficients:  0.001  0.002  0.027  -0.313  1.283 
    Occupation by irrep:
             A1    A2    B1    B2 
    DOCC [     3,    0,    0,    1 ]
    SOCC [     0,    0,    1,    0 ]

   @DF-UKS iter   5:   -39.83232939484355   -9.21957e-06   2.75300e-05 DIIS
DIIS coefficients:  0.000  0.000  0.001  -0.001  -0.074  1.074 
    Occupation by irrep:
             A1    A2    B1    B2 
    DOCC [     3,    0,    0,    1 ]
    SOCC [     0,    0,    1,    0 ]

   @DF-UKS iter   6:   -39.83232981139134   -4.16548e-07   2.48247e-06 DIIS
DIIS coefficients:  0.000  -0.000  -0.000  0.003  -0.012  -0.058  1.068 
    Occupation by irrep:
             A1    A2    B1    B2 
    DOCC [     3,    0,    0,    1 ]
    SOCC [     0,    0,    1,    0 ]

   @DF-UKS iter   7:   -39.83232981428225   -2.89091e-09   3.11066e-07 DIIS
DIIS coefficients:  -0.000  -0.000  0.000  0.000  0.000  -0.007  -0.023  1.029 
    Occupation by irrep:
             A1    A2    B1    B2 
    DOCC [     3,    0,    0,    1 ]
    SOCC [     0,    0,    1,    0 ]

   @DF-UKS iter   8:   -39.83232981431745   -3.52074e-11   1.69144e-08 DIIS
DIIS coefficients:  0.000  0.000  0.000  -0.000  0.000  0.001  -0.004  -0.050  1.052 
    Occupation by irrep:
             A1    A2    B1    B2 
    DOCC [     3,    0,    0,    1 ]
    SOCC [     0,    0,    1,    0 ]

   @DF-UKS iter   9:   -39.83232981431754   -8.52651e-14   1.39879e-09 DIIS

  DF guess converged.

  ==> DirectJK: Integral-Direct J/K Matrices <==

    J tasked:                  Yes
    K tasked:                  Yes
    wK tasked:                  No
    Integrals threads:           1
    Schwarz Cutoff:          1E-12

DIIS coefficients:  1.000 
    Occupation by irrep:
             A1    A2    B1    B2 
    DOCC [     3,    0,    0,    1 ]
    SOCC [     0,    0,    1,    0 ]

   @UKS iter  10:   -39.83232072516545   -3.98323e+01   5.63090e-06 DIIS
DIIS coefficients:  -0.032  1.032 
    Occupation by irrep:
             A1    A2    B1    B2 
    DOCC [     3,    0,    0,    1 ]
    SOCC [     0,    0,    1,    0 ]

   @UKS iter  11:   -39.83232072939467   -4.22922e-09   4.74330e-07 DIIS
DIIS coefficients:  -0.026  0.526  0.500 
    Occupation by irrep:
             A1    A2    B1    B2 
    DOCC [     3,    0,    0,    1 ]
    SOCC [     0,    0,    1,    0 ]

   @UKS iter  12:   -39.83232072940707   -1.24061e-11   4.54686e-07 DIIS
DIIS coefficients:  0.000  -0.017  0.008  1.009 
    Occupation by irrep:
             A1    A2    B1    B2 
    DOCC [     3,    0,    0,    1 ]
    SOCC [     0,    0,    1,    0 ]

   @UKS iter  13:   -39.83232072944319   -3.61169e-11   1.86623e-08 DIIS
DIIS coefficients:  0.000  -0.010  -0.010  -0.085  1.104 
    Occupation by irrep:
             A1    A2    B1    B2 
    DOCC [     3,    0,    0,    1 ]
    SOCC [     0,    0,    1,    0 ]

   @UKS iter  14:   -39.83232072944332   -1.35003e-13   2.97704e-09 DIIS
  Energy and wave function converged.


  ==> Post-Iterations <==

   @Spin Contamination Metric:   4.671649687E-03
   @S^2 Expected:                7.500000000E-01
   @S^2 Observed:                7.546716497E-01
   @S   Expected:                5.000000000E-01
   @S   Observed:                5.000000000E-01

    Orbital Energies [Eh]
    ---------------------

    Alpha Occupied:                                                       

       1A1   -10.213736     2A1    -0.660899     3A1    -0.399359  
       1B2    -0.399359     1B1    -0.225073  

    Alpha Virtual:                                                        

       4A1     0.084970     2B2     0.159169     5A1     0.159169  
       2B1     0.532775     6A1     0.561038     3B2     0.561039  
       7A1     0.678151     4B2     0.844622     8A1     0.844622  
       9A1     0.896071     3B1     1.447471     1A2     1.447471  
      10A1     1.839691     5B2     1.839691    11A1     1.881503  
       6B2     1.999798     4B1     2.234032     5B1     2.466671  
       2A2     2.466671     7B2     2.565230    12A1     2.565230  
      13A1     3.063827    14A1     3.286624     8B2     3.286624  
      15A1     4.259214  

    Beta Occupied:                                                        

       1A1   -10.199313     2A1    -0.618729     3A1    -0.390231  
       1B2    -0.390231  

    Beta Virtual:                                                         

       1B1    -0.048385     4A1     0.102604     2B2     0.165748  
       5A1     0.165748     6A1     0.569513     3B2     0.569513  
       2B1     0.611027     7A1     0.696324     8A1     0.846672  
       4B2     0.846672     9A1     0.923897     1A2     1.494703  
       3B1     1.494703    10A1     1.843329     5B2     1.843329  
      11A1     1.963998     6B2     1.993461     4B1     2.236615  
       5B1     2.494130     2A2     2.494130     7B2     2.563639  
      12A1     2.563639    13A1     3.073202    14A1     3.293368  
       8B2     3.293369    15A1     4.296763  

    Final Occupation by Irrep:
             A1    A2    B1    B2 
    DOCC [     3,    0,    0,    1 ]
    SOCC [     0,    0,    1,    0 ]

  @UKS Final Energy:   -39.83232072944332

   => Energetics <=

    Nuclear Repulsion Energy =              9.0015099989487464
    One-Electron Energy =                 -70.4297235186328123
    Two-Electron Energy =                  26.7896222865239508
    DFT Exchange-Correlation Energy =      -5.1937294962832086
    Empirical Dispersion Energy =           0.0000000000000000
    VV10 Nonlocal Energy =                  0.0000000000000000
    Total Energy =                        -39.8323207294433246

  UHF NO Occupations:
  HONO-2 :    1 B2 1.9996194
  HONO-1 :    3 A1 1.9984244
  HONO-0 :    1 B1 1.0000000
  LUNO+0 :    4 A1 0.0015756
  LUNO+1 :    2 B2 0.0003806
  LUNO+2 :    5 A1 0.0003806
  LUNO+3 :    6 A1 0.0000005


Computation Completed


Properties will be evaluated at   0.000000,   0.000000,   0.000000 [a0]

Properties computed using the SCF density matrix

  Nuclear Dipole Moment: [e a0]
     X:     0.0000      Y:    -0.0000      Z:     0.0000

  Electronic Dipole Moment: [e a0]
     X:     0.0000      Y:     0.0000      Z:    -0.0000

  Dipole Moment: [e a0]
     X:     0.0000      Y:    -0.0000      Z:    -0.0000     Total:     0.0000

  Dipole Moment: [D]
     X:     0.0000      Y:    -0.0000      Z:    -0.0000     Total:     0.0000


*** tstop() called on FACC02D75Y4MD6T.tld at Mon Sep 21 09:31:18 2020
Module time:
	user time   =       2.10 seconds =       0.04 minutes
	system time =       0.08 seconds =       0.00 minutes
	total time  =          2 seconds =       0.03 minutes
Total time:
	user time   =       2.10 seconds =       0.04 minutes
	system time =       0.08 seconds =       0.00 minutes
	total time  =          2 seconds =       0.03 minutes

*** tstart() called on FACC02D75Y4MD6T.tld
*** at Mon Sep 21 09:31:18 2020


         ------------------------------------------------------------
                                   SCF GRAD                          
                          Rob Parrish, Justin Turney,                
                       Andy Simmonett, and Alex Sokolov              
         ------------------------------------------------------------

  ==> Geometry <==

    Molecular point group: c2v
    Full point group: D1h

    Geometry (in Angstrom), charge = 0, multiplicity = 2:

       Center              X                  Y                   Z               Mass       
    ------------   -----------------  -----------------  -----------------  -----------------
         C           -0.000000000000     0.000000000000     0.000000000000    12.000000000000
         H           -0.000000000000     0.000000000000    -1.160000001394     1.007825032230
         H           -0.000000000000     1.004589468792     0.580000000697     1.007825032230
         H            0.000000000000    -1.004589468792     0.580000000697     1.007825032230

           C
              BASIS           6-31G(D_P)           a2828f8bd65c52d276d3a5c7992328305af36e8a
              DF_BASIS_SCF    (6-31G(D_P) AUX)     130a2f96e8083cf241f9163199d111676f18ec06
           H
              BASIS           6-31G(D_P)           902186d0f3205710946c2c15d2c68458d6f6cc2a
              DF_BASIS_SCF    (6-31G(D_P) AUX)     1164366b470d7a66fddaf681ef9d1c28421b3e4a
           H
              BASIS           6-31G(D_P)           902186d0f3205710946c2c15d2c68458d6f6cc2a
              DF_BASIS_SCF    (6-31G(D_P) AUX)     1164366b470d7a66fddaf681ef9d1c28421b3e4a
           H
              BASIS           6-31G(D_P)           902186d0f3205710946c2c15d2c68458d6f6cc2a
              DF_BASIS_SCF    (6-31G(D_P) AUX)     1164366b470d7a66fddaf681ef9d1c28421b3e4a

  Nuclear repulsion =    9.001509998948746

  ==> Basis Set <==

  -AO BASIS SET INFORMATION:
    Name                   = 6-31G(D_P)
    Blend                  = 6-31G(D_P)
    Total number of shells = 15
    Number of primitives   = 30
    Number of AO           = 30
    Number of SO           = 30
    Maximum AM             = 2
    Spherical Harmonics    = FALSE

  -Contraction Scheme:
    Atom   Type   All Primitives // Shells:
   ------ ------ --------------------------
       1     C     10s 4p 1d // 3s 2p 1d 
       2     H     4s 1p // 2s 1p 
       3     H     4s 1p // 2s 1p 
       4     H     4s 1p // 2s 1p 

  ==> AO Basis Functions <==

    [ 6-31G(D_P) ]
    cartesian
    ****
    C   1
    S   6 1.00
                      3047.52490000           0.00183470
                       457.36951000           0.01403730
                       103.94869000           0.06884260
                        29.21015500           0.23218440
                         9.28666300           0.46794130
                         3.16392700           0.36231200
    S   3 1.00
                         7.86827240          -0.11933240
                         1.88128850          -0.16085420
                         0.54424930           1.14345640
    P   3 1.00
                         7.86827240           0.06899910
                         1.88128850           0.31642400
                         0.54424930           0.74430830
    S   1 1.00
                         0.16871440           1.00000000
    P   1 1.00
                         0.16871440           1.00000000
    D   1 1.00
                         0.80000000           1.00000000
    ****
    H   2
    S   3 1.00
                        18.73113700           0.03349460
                         2.82539370           0.23472695
                         0.64012170           0.81375733
    S   1 1.00
                         0.16127780           1.00000000
    P   1 1.00
                         1.10000000           1.00000000
    ****
    H   3
    S   3 1.00
                        18.73113700           0.03349460
                         2.82539370           0.23472695
                         0.64012170           0.81375733
    S   1 1.00
                         0.16127780           1.00000000
    P   1 1.00
                         1.10000000           1.00000000
    ****

  ==> DirectJKGrad: Integral-Direct SCF Gradients <==

    Gradient:                    1
    J tasked:                  Yes
    K tasked:                  Yes
    wK tasked:                  No
    Integrals threads:           1
    Schwarz Cutoff:          0E+00

  ==> DFT Potential <==

   => Composite Functional: B3LYP <= 

    B3LYP Hyb-GGA Exchange-Correlation Functional

    P. J. Stephens, F. J. Devlin, C. F. Chabalowski, and M. J. Frisch, J. Phys. Chem. 98, 11623 (1994)

    Deriv               =              1
    GGA                 =           TRUE
    Meta                =          FALSE

    Exchange Hybrid     =           TRUE
    MP2 Hybrid          =          FALSE

   => Exchange Functionals <=

    0.0800   Slater exchange
    0.7200         Becke 88

   => Exact (HF) Exchange <=

    0.2000               HF 

   => Correlation Functionals <=

    0.1900   Vosko, Wilk & Nusair (VWN5_RPA)
    0.8100   Lee, Yang & Parr

   => XC_HYB_GGA_XC_B3LYP Functional <=

    B3LYP
    P. J. Stephens, F. J. Devlin, C. F. Chabalowski, and M. J. Frisch, J. Phys. Chem. 98, 11623 (1994)
    GGA   =           TRUE
    Meta  =          FALSE
    LRC   =          FALSE
    Alpha =   1.000000E+00
    Omega =   0.000000E+00

    > Parameters <


   => Molecular Quadrature <=

    Radial Scheme          =       TREUTLER
    Pruning Scheme         =           FLAT
    Nuclear Scheme         =       TREUTLER

    BS radius alpha        =              1
    Pruning alpha          =              1
    Radial Points          =             75
    Spherical Points       =            302
    Total Points           =          87826
    Total Blocks           =            735
    Max Points             =            255
    Max Functions          =             30


  -Nuclear Gradient:
     Atom            X                  Y                   Z
    ------   -----------------  -----------------  -----------------
       1       -0.000000000000     0.000000000000     0.000000002251
       2       -0.000000000000     0.000000000000     1.368791363701
       3        0.000000000000    -1.185408094571    -0.684395682976
       4       -0.000000000000     1.185408094571    -0.684395682976


  -Core Hamiltonian Gradient:
     Atom            X                  Y                   Z
    ------   -----------------  -----------------  -----------------
       1       -0.000000000000    -0.000000000000     0.000000510915
       2        0.000000000000    -0.000000000000    -3.553021776070
       3       -0.000000000000     3.077007174014     1.776510632578
       4        0.000000000000    -3.077007174014     1.776510632578


  -Overlap Gradient:
     Atom            X                  Y                   Z
    ------   -----------------  -----------------  -----------------
       1        0.000000000000     0.000000000000    -0.000000205052
       2       -0.000000000000     0.000000000000     0.152153140006
       3        0.000000000000    -0.131768381433    -0.076076467477
       4       -0.000000000000     0.131768381433    -0.076076467477


  -Coulomb Gradient:
     Atom            X                  Y                   Z
    ------   -----------------  -----------------  -----------------
       1        0.000000000000     0.000000000000    -0.000000490521
       2       -0.000000000000    -0.000000000000     2.247383577992
       3        0.000000000000    -1.946291379909    -1.123691543735
       4       -0.000000000000     1.946291379909    -1.123691543735


  -Exchange Gradient:
     Atom            X                  Y                   Z
    ------   -----------------  -----------------  -----------------
       1        0.000000000000    -0.000000000000     0.000000015568
       2       -0.000000000000     0.000000000000    -0.065058804163
       3       -0.000000000000     0.056342585154     0.032529394298
       4        0.000000000000    -0.056342585154     0.032529394298


  -XC Gradient:
     Atom            X                  Y                   Z
    ------   -----------------  -----------------  -----------------
       1       -0.000000000000    -0.000000000000     0.000002039941
       2        0.000000000000     0.000000000000    -0.194571939852
       3       -0.000000000000     0.168504009445     0.097286222512
       4        0.000000000000    -0.168504009445     0.097286222512


  -Total Gradient:
     Atom            X                  Y                   Z
    ------   -----------------  -----------------  -----------------
       1       -0.000000000000     0.000000000000     0.000001873102
       2        0.000000000000     0.000000000000    -0.044324438387
       3       -0.000000000000     0.038385912701     0.022162555199
       4        0.000000000000    -0.038385912701     0.022162555199


*** tstop() called on FACC02D75Y4MD6T.tld at Mon Sep 21 09:31:18 2020
Module time:
	user time   =       0.36 seconds =       0.01 minutes
	system time =       0.01 seconds =       0.00 minutes
	total time  =          0 seconds =       0.00 minutes
Total time:
	user time   =       2.46 seconds =       0.04 minutes
	system time =       0.09 seconds =       0.00 minutes
	total time  =          2 seconds =       0.03 minutes

			-----------------------------------------
			 OPTKING 2.0: for geometry optimizations 
			  - R.A. King,  Bethel University        
			-----------------------------------------
dynamic level          =                  0
conv_max_force         =           3.00e-04
conv_rms_force         =           0.00e+00
conv_max_DE            =           1.00e-06
conv_max_disp          =           1.20e-03
conv_rms_disp          =           0.00e+00
SD Hessian             =           1.00e+00
scale_connectivity     =           1.30e+00
interfragment_scale_connectivity =           1.80e+00
fragment_mode          =             single
interfragment_mode        =              fixed
intcos_generate_exit   =              false
print_params           =              false
print_lvl              = 3
ensure_bt_convergence =             false
rfo_follow_root        =              false
rfo_root               =                  0
rfo_normalization_max  =           1.00e+02
rsrfo_alpha_max        =          1.000e+08
step_type              =                RFO
opt. coordinates       = Redundant Internals
linesearch_static_N    =                  8
linesearch_static_min  =          1.000e-03
linesearch_static_max  =          1.000e-01
consecutive_backsteps  =                  0
intrafragment_H        =           Schlegel
interfragment_H        =            Default
H_update               =               BFGS
H_update_use_last      =                  2
freeze_intrafragment   =              false
intrafragment_step_limit=          5.00e-01
interfragment_step_limit=          5.00e-01
add_auxiliary_bonds   =               true
H_guess_every         =              false
auxiliary_bond_factor =          2.50e+00
H_update_limit         =               true
H_update_limit_scale   =           5.00e-01
H_update_limit_max     =           1.00e+00
H_update_den_tol       =           1.00e-07
interfragment_distance_inverse=       false
write_final_step_geometry=            false
maximum_H_bond_distance=           4.30e+00
read_cartesian_H       =              false
fb_fragments          =              false
fb_fragments_only     =              false
frozen_distance: 
frozen_bend: 
frozen_dihedral: 
frozen_cartesian: 
fixed_distance: 
fixed_bend: 
fixed_dihedral: 
print_trajectory_xyz_file =              false

	Internal coordinates to be generated automatically.
	Detected frag 1 with atoms:  1 2 3 4
	---Fragment 1 Bond Connectivity---
	 1 : 2 3 4
	 2 : 1
	 3 : 1
	 4 : 1

	---Fragment 1 Geometry and Gradient---
	 C          -0.0000000000        0.0000000000        0.0000000000
	 H          -0.0000000000        0.0000000000       -2.1920823082
	 H          -0.0000000000        1.8983989645        1.0960411541
	 H           0.0000000000       -1.8983989645        1.0960411541
	            -0.0000000000        0.0000000000        0.0000018731
	             0.0000000000        0.0000000000       -0.0443244384
	            -0.0000000000        0.0383859127        0.0221625552
	             0.0000000000       -0.0383859127        0.0221625552

	Previous optimization step data not found.  Starting new optimization.

	---Fragment 1 Intrafragment Coordinates---
	 - Coordinate -           - BOHR/RAD -       - ANG/DEG -
	 R(1,2)           =         2.192082	       1.160000
	 R(1,3)           =         2.192082	       1.160000
	 R(1,4)           =         2.192082	       1.160000
	 B(2,1,3)         =         2.094395	     120.000000
	 B(2,1,4)         =         2.094395	     120.000000
	 B(3,1,4)         =         2.094395	     120.000000

	Current energy   :       -39.8323207294

B matrix
  0.000000  0.000000  1.000000  0.000000  0.000000 -1.000000  0.000000  0.000000
  0.000000  0.000000  0.000000  0.000000
  0.000000 -0.866025 -0.500000  0.000000  0.000000  0.000000 -0.000000  0.866025
  0.500000  0.000000  0.000000  0.000000
 -0.000000  0.866025 -0.500000  0.000000  0.000000  0.000000  0.000000  0.000000
  0.000000  0.000000 -0.866025  0.500000
 -0.000000  0.684281 -0.395070  0.000000 -0.456187  0.000000  0.000000 -0.228094
  0.395070  0.000000  0.000000  0.000000
  0.000000 -0.684281 -0.395070 -0.000000  0.456187  0.000000  0.000000  0.000000
  0.000000 -0.000000  0.228094  0.395070
  0.000000 -0.000000  0.790139  0.000000  0.000000  0.000000 -0.000000  0.228094
 -0.395070  0.000000 -0.228094 -0.395070
Internal forces in au
  -0.044325074665070  -0.044324135006550  -0.044324135006550   0.000000125375193
   0.000000125375193  -0.000000250750386
	Generating empirical Hessian (Schlegel '84) for each fragment.
diagonal Hessian values for simple coordinates.
  0.278315  0.278315  0.278315  0.160000  0.160000  0.160000

Initial Hessian guess
  0.278315  0.000000  0.000000  0.000000  0.000000  0.000000
  0.000000  0.278315  0.000000  0.000000  0.000000  0.000000
  0.000000  0.000000  0.278315  0.000000  0.000000  0.000000
  0.000000  0.000000  0.000000  0.160000  0.000000  0.000000
  0.000000  0.000000  0.000000  0.000000  0.160000  0.000000
  0.000000  0.000000  0.000000  0.000000  0.000000  0.160000
	Projection matrix for redundancies.
  1.000000 -0.000000 -0.000000  0.000000 -0.000000  0.000000
 -0.000000  1.000000 -0.000000  0.000000  0.000000 -0.000000
 -0.000000  0.000000  1.000000 -0.000000 -0.000000 -0.000000
 -0.000000  0.000000  0.000000  0.666667 -0.333333 -0.333333
 -0.000000  0.000000  0.000000 -0.333333  0.666667 -0.333333
  0.000000 -0.000000 -0.000000 -0.333333 -0.333333  0.666667
Constraint matrix
  0.000000  0.000000  0.000000  0.000000  0.000000  0.000000
  0.000000  0.000000  0.000000  0.000000  0.000000  0.000000
  0.000000  0.000000  0.000000  0.000000  0.000000  0.000000
  0.000000  0.000000  0.000000  0.000000  0.000000  0.000000
  0.000000  0.000000  0.000000  0.000000  0.000000  0.000000
  0.000000  0.000000  0.000000  0.000000  0.000000  0.000000
	Internal forces in au, after projection of redundancies and constraints.
 -0.044325 -0.044324 -0.044324  0.000000  0.000000 -0.000000
Projected (PHP) Hessian matrix
  0.278315 -0.000000 -0.000000 -0.000000 -0.000000  0.000000
 -0.000000  0.278315 -0.000000  0.000000  0.000000 -0.000000
 -0.000000  0.000000  0.278315 -0.000000  0.000000 -0.000000
 -0.000000  0.000000  0.000000  0.106667 -0.053333 -0.053333
 -0.000000  0.000000  0.000000 -0.053333  0.106667 -0.053333
  0.000000 -0.000000 -0.000000 -0.053333 -0.053333  0.106667
	Taking RFO optimization step.
Eigenvalues of scaled RFO matrix.
 -0.019773  0.000000  0.160000  0.160000  0.278315  0.278315
  0.298088
First eigenvector (unnormalized) of scaled RFO matrix.
 -0.143999 -0.143996 -0.143996  0.000001  0.000001 -0.000001  0.968398
	Going to follow RFO solution 1.
	Using RFO vector 1.
	rfo_root is 1

Scaled RFO eigenvalue 1:   -0.0197725811 (or 2*-0.0098862905  )
eigenvector:
 -0.148698 -0.148695 -0.148695  0.000001  0.000001 -0.000001  1.000000

Projection of redundancies out of step:
	Original dq     Projected dq     Difference
	   -0.148698       -0.148698       0.000000
	   -0.148695       -0.148695       0.000000
	   -0.148695       -0.148695       0.000000
	    0.000001        0.000001      -0.000000
	    0.000001        0.000001       0.000000
	   -0.000001       -0.000001       0.000000
dq:
 -0.148698 -0.148695 -0.148695  0.000001  0.000001 -0.000001
fq:
 -0.044325 -0.044324 -0.044324  0.000000  0.000000 -0.000000
	lambda calculated by (dq^t).(-f)     =        -0.0197725811
	Analytic derivative d(norm)/d(alpha) =        -0.0082523078
	Final scaled step dq:
 -0.148698 -0.148695 -0.148695  0.000001  0.000001 -0.000001
	Norm of target step-size    0.25755
	Projected energy change by RFO approximation:        -0.0185426195

	Back-transformation to cartesian coordinates...
	 In displace_util 
	       Original         Target           Dq
	   2.1920823082   2.0433843822  -0.1486979260
	   2.1920823068   2.0433875334  -0.1486947734
	   2.1920823068   2.0433875334  -0.1486947734
	   2.0943951027   2.0943958002   0.0000006974
	   2.0943951027   2.0943958002   0.0000006974
	   2.0943951017   2.0943937069  -0.0000013948
	---------------------------------------------------
	 Iter        RMS(dx)        Max(dx)        RMS(dq) 
	---------------------------------------------------
	    1        7.4e-02        1.5e-01        5.1e-08
	    2        3.3e-08        5.2e-08        1.7e-15
	---------------------------------------------------

	Report of back-transformation:
	  int       q_target          Error
	-----------------------------------
	    1   2.0433843822  -0.0000000000
	    2   2.0433875334   0.0000000000
	    3   2.0433875334   0.0000000000
	    4   2.0943958002  -0.0000000000
	    5   2.0943958002   0.0000000000
	    6   2.0943937069  -0.0000000000

	Successfully converged to displaced geometry.

	--- Internal Coordinate Step in ANG or DEG, aJ/ANG or AJ/DEG ---
	 ---------------------------------------------------------------------------
	   Coordinate                Previous        Force       Change         New 
	   ----------                --------       ------       ------       ------
	    1 R(1,2)          =      1.160000    -0.365182    -0.078688     1.081312
	    2 R(1,3)          =      1.160000    -0.365174    -0.078686     1.081314
	    3 R(1,4)          =      1.160000    -0.365174    -0.078686     1.081314
	    4 B(2,1,3)        =    120.000000     0.000000     0.000040   120.000040
	    5 B(2,1,4)        =    120.000000     0.000000     0.000040   120.000040
	    6 B(3,1,4)        =    120.000000    -0.000000    -0.000080   119.999920
	 ---------------------------------------------------------------------------
	Successfully symmetrized geometry.
Symmetrized geometry
 -0.000000  0.000000 -0.000001
 -0.000000  0.000000 -2.043386
 -0.000000  1.769625  1.021694
  0.000000 -1.769625  1.021694

  ==> Convergence Check <==

  Measures of convergence in internal coordinates in au.
  Criteria marked as inactive (o), active & met (*), and active & unmet ( ).
  --------------------------------------------------------------------------------------------- ~
   Step     Total Energy     Delta E     MAX Force     RMS Force      MAX Disp      RMS Disp    ~
  --------------------------------------------------------------------------------------------- ~
    Convergence Criteria    1.00e-06 *    3.00e-04 *             o    1.20e-03 *             o  ~
  --------------------------------------------------------------------------------------------- ~
      1     -39.83232073   -3.98e+01      4.43e-02      3.13e-02 o    1.49e-01      1.05e-01 o  ~
  ---------------------------------------------------------------------------------------------

	Writing optimization data to binary file.
	Structure for next step:
	Cartesian Geometry (in Angstrom)
	    C    -0.0000000000   0.0000000000  -0.0000007436
	    H    -0.0000000000   0.0000000000  -1.0813131870
	    H    -0.0000000000   0.9364451124   0.5406569653
	    H     0.0000000000  -0.9364451124   0.5406569653
			--------------------------
			 OPTKING Finished Execution 
			--------------------------

    Structure for next step:
    Molecular point group: c2v
    Full point group: C2v

    Geometry (in Angstrom), charge = 0, multiplicity = 2:

    C            0.000000000000     0.000000000000    -0.000000199533
    H            0.000000000000     0.000000000000    -1.081312647222
    H           -0.000000000000     0.936445116044     0.540657511512
    H            0.000000000000    -0.936445116044     0.540657511512

gradient() will perform analytic gradient computation.

*** tstart() called on FACC02D75Y4MD6T.tld
*** at Mon Sep 21 09:31:18 2020

   => Loading Basis Set <=

    Name: 6-31G(D_P)
    Role: ORBITAL
    Keyword: BASIS
    atoms 1   entry C          line   115 file /Users/blais.ch/anaconda3/envs/rmg_env/share/psi4/basis/6-31g_d_p_.gbs 
    atoms 2-4 entry H          line    44 file /Users/blais.ch/anaconda3/envs/rmg_env/share/psi4/basis/6-31g_d_p_.gbs 


         ---------------------------------------------------------
                                   SCF
               by Justin Turney, Rob Parrish, Andy Simmonett
                          and Daniel G. A. Smith
                              UKS Reference
                        1 Threads,    976 MiB Core
         ---------------------------------------------------------

  ==> Geometry <==

    Molecular point group: c2v
    Full point group: C2v

    Geometry (in Angstrom), charge = 0, multiplicity = 2:

       Center              X                  Y                   Z               Mass       
    ------------   -----------------  -----------------  -----------------  -----------------
         C            0.000000000000     0.000000000000    -0.000000199533    12.000000000000
         H            0.000000000000     0.000000000000    -1.081312647222     1.007825032230
         H           -0.000000000000     0.936445116044     0.540657511512     1.007825032230
         H            0.000000000000    -0.936445116044     0.540657511512     1.007825032230

           C
              BASIS           6-31G(D_P)           a2828f8bd65c52d276d3a5c7992328305af36e8a
              DF_BASIS_SCF    (6-31G(D_P) AUX)     130a2f96e8083cf241f9163199d111676f18ec06
           H
              BASIS           6-31G(D_P)           902186d0f3205710946c2c15d2c68458d6f6cc2a
              DF_BASIS_SCF    (6-31G(D_P) AUX)     1164366b470d7a66fddaf681ef9d1c28421b3e4a
           H
              BASIS           6-31G(D_P)           902186d0f3205710946c2c15d2c68458d6f6cc2a
              DF_BASIS_SCF    (6-31G(D_P) AUX)     1164366b470d7a66fddaf681ef9d1c28421b3e4a
           H
              BASIS           6-31G(D_P)           902186d0f3205710946c2c15d2c68458d6f6cc2a
              DF_BASIS_SCF    (6-31G(D_P) AUX)     1164366b470d7a66fddaf681ef9d1c28421b3e4a

  Running in c2v symmetry.

  Rotational constants: A =      9.53711  B =      9.53711  C =      4.76856 [cm^-1]
  Rotational constants: A = 285915.43281  B = 285915.30562  C = 142957.68461 [MHz]
  Nuclear repulsion =    9.656543669788855

  Charge       = 0
  Multiplicity = 2
  Electrons    = 9
  Nalpha       = 5
  Nbeta        = 4

  ==> Algorithm <==

  SCF Algorithm Type is DIRECT.
  DIIS enabled.
  MOM disabled.
  Fractional occupation disabled.
  Guess Type is READ.
  Energy threshold   = 1.00e-08
  Density threshold  = 1.00e-08
  Integral threshold = 0.00e+00

  ==> Primary Basis <==

  -AO BASIS SET INFORMATION:
    Name                   = 6-31G(D_P)
    Blend                  = 6-31G(D_P)
    Total number of shells = 15
    Number of primitives   = 30
    Number of AO           = 30
    Number of SO           = 30
    Maximum AM             = 2
    Spherical Harmonics    = FALSE

  -Contraction Scheme:
    Atom   Type   All Primitives // Shells:
   ------ ------ --------------------------
       1     C     10s 4p 1d // 3s 2p 1d 
       2     H     4s 1p // 2s 1p 
       3     H     4s 1p // 2s 1p 
       4     H     4s 1p // 2s 1p 

  ==> AO Basis Functions <==

    [ 6-31G(D_P) ]
    cartesian
    ****
    C   1
    S   6 1.00
                      3047.52490000           0.00183470
                       457.36951000           0.01403730
                       103.94869000           0.06884260
                        29.21015500           0.23218440
                         9.28666300           0.46794130
                         3.16392700           0.36231200
    S   3 1.00
                         7.86827240          -0.11933240
                         1.88128850          -0.16085420
                         0.54424930           1.14345640
    P   3 1.00
                         7.86827240           0.06899910
                         1.88128850           0.31642400
                         0.54424930           0.74430830
    S   1 1.00
                         0.16871440           1.00000000
    P   1 1.00
                         0.16871440           1.00000000
    D   1 1.00
                         0.80000000           1.00000000
    ****
    H   2
    S   3 1.00
                        18.73113700           0.03349460
                         2.82539370           0.23472695
                         0.64012170           0.81375733
    S   1 1.00
                         0.16127780           1.00000000
    P   1 1.00
                         1.10000000           1.00000000
    ****
    H   3
    S   3 1.00
                        18.73113700           0.03349460
                         2.82539370           0.23472695
                         0.64012170           0.81375733
    S   1 1.00
                         0.16127780           1.00000000
    P   1 1.00
                         1.10000000           1.00000000
    ****

  ==> DFT Potential <==

   => Composite Functional: B3LYP <= 

    B3LYP Hyb-GGA Exchange-Correlation Functional

    P. J. Stephens, F. J. Devlin, C. F. Chabalowski, and M. J. Frisch, J. Phys. Chem. 98, 11623 (1994)

    Deriv               =              1
    GGA                 =           TRUE
    Meta                =          FALSE

    Exchange Hybrid     =           TRUE
    MP2 Hybrid          =          FALSE

   => Exchange Functionals <=

    0.0800   Slater exchange
    0.7200         Becke 88

   => Exact (HF) Exchange <=

    0.2000               HF 

   => Correlation Functionals <=

    0.1900   Vosko, Wilk & Nusair (VWN5_RPA)
    0.8100   Lee, Yang & Parr

   => XC_HYB_GGA_XC_B3LYP Functional <=

    B3LYP
    P. J. Stephens, F. J. Devlin, C. F. Chabalowski, and M. J. Frisch, J. Phys. Chem. 98, 11623 (1994)
    GGA   =           TRUE
    Meta  =          FALSE
    LRC   =          FALSE
    Alpha =   1.000000E+00
    Omega =   0.000000E+00

    > Parameters <


   => Molecular Quadrature <=

    Radial Scheme          =       TREUTLER
    Pruning Scheme         =           FLAT
    Nuclear Scheme         =       TREUTLER

    BS radius alpha        =              1
    Pruning alpha          =              1
    Radial Points          =             75
    Spherical Points       =            302
    Total Points           =          87806
    Total Blocks           =            733
    Max Points             =            256
    Max Functions          =             30

   => Loading Basis Set <=

    Name: (6-31G(D_P) AUX)
    Role: JKFIT
    Keyword: DF_BASIS_SCF
    atoms 1   entry C          line   121 file /Users/blais.ch/anaconda3/envs/rmg_env/share/psi4/basis/cc-pvdz-jkfit.gbs 
    atoms 2-4 entry H          line    51 file /Users/blais.ch/anaconda3/envs/rmg_env/share/psi4/basis/cc-pvdz-jkfit.gbs 

   => Loading Basis Set <=

    Name: 6-31G(D_P)
    Role: ORBITAL
    Keyword: BASIS
    atoms 1   entry C          line   115 file /Users/blais.ch/anaconda3/envs/rmg_env/share/psi4/basis/6-31g_d_p_.gbs 
    atoms 2-4 entry H          line    44 file /Users/blais.ch/anaconda3/envs/rmg_env/share/psi4/basis/6-31g_d_p_.gbs 

  Reading orbitals from file 180, no projection.

  Starting with a DF guess...

  ==> Pre-Iterations <==

   -------------------------------------------------------
    Irrep   Nso     Nmo     Nalpha   Nbeta   Ndocc  Nsocc
   -------------------------------------------------------
     A1        15      15       0       0       0       0
     A2         2       2       0       0       0       0
     B1         5       5       0       0       0       0
     B2         8       8       0       0       0       0
   -------------------------------------------------------
    Total      30      30       5       4       4       1
   -------------------------------------------------------

  ==> Integral Setup <==

  DFHelper Memory: AOs need 0.001 GiB; user supplied 0.642 GiB. Using in-core AOs.

  ==> MemDFJK: Density-Fitted J/K Matrices <==

    J tasked:                   Yes
    K tasked:                   Yes
    wK tasked:                   No
    OpenMP threads:               1
    Memory [MiB]:               657
    Algorithm:                 Core
    Schwarz Cutoff:           1E-12
    Mask sparsity (%):       0.0000
    Fitting Condition:        1E-10

   => Auxiliary Basis Set <=

  -AO BASIS SET INFORMATION:
    Name                   = (6-31G(D_P) AUX)
    Blend                  = CC-PVDZ-JKFIT
    Total number of shells = 51
    Number of primitives   = 51
    Number of AO           = 156
    Number of SO           = 156
    Maximum AM             = 3
    Spherical Harmonics    = FALSE

  -Contraction Scheme:
    Atom   Type   All Primitives // Shells:
   ------ ------ --------------------------
       1     C     10s 7p 5d 2f // 10s 7p 5d 2f 
       2     H     4s 3p 2d // 4s 3p 2d 
       3     H     4s 3p 2d // 4s 3p 2d 
       4     H     4s 3p 2d // 4s 3p 2d 

  ==> AO Basis Functions <==

    [ (6-31G(D_P) AUX) ]
    cartesian
    ****
    C   1
    S   1 1.00
                      1113.98677190           1.00000000
    S   1 1.00
                       369.16234180           1.00000000
    S   1 1.00
                       121.79275232           1.00000000
    S   1 1.00
                        48.12711454           1.00000000
    S   1 1.00
                        20.36507400           1.00000000
    S   1 1.00
                         8.08835969           1.00000000
    S   1 1.00
                         2.50686566           1.00000000
    S   1 1.00
                         1.24385374           1.00000000
    S   1 1.00
                         0.48449900           1.00000000
    S   1 1.00
                         0.19185160           1.00000000
    P   1 1.00
                       102.99176249           1.00000000
    P   1 1.00
                        28.13259401           1.00000000
    P   1 1.00
                         9.83643182           1.00000000
    P   1 1.00
                         3.34905450           1.00000000
    P   1 1.00
                         1.49476186           1.00000000
    P   1 1.00
                         0.57690109           1.00000000
    P   1 1.00
                         0.20320063           1.00000000
    D   1 1.00
                        10.59406836           1.00000000
    D   1 1.00
                         3.59971954           1.00000000
    D   1 1.00
                         1.33556911           1.00000000
    D   1 1.00
                         0.51949765           1.00000000
    D   1 1.00
                         0.19954125           1.00000000
    F   1 1.00
                         1.19486634           1.00000000
    F   1 1.00
                         0.41586634           1.00000000
    ****
    H   2
    S   1 1.00
                         9.53024933           1.00000000
    S   1 1.00
                         1.91745062           1.00000000
    S   1 1.00
                         0.68424049           1.00000000
    S   1 1.00
                         0.28413256           1.00000000
    P   1 1.00
                         2.91332320           1.00000000
    P   1 1.00
                         1.26212054           1.00000000
    P   1 1.00
                         0.50199776           1.00000000
    D   1 1.00
                         2.31353291           1.00000000
    D   1 1.00
                         0.71290724           1.00000000
    ****
    H   3
    S   1 1.00
                         9.53024933           1.00000000
    S   1 1.00
                         1.91745062           1.00000000
    S   1 1.00
                         0.68424049           1.00000000
    S   1 1.00
                         0.28413256           1.00000000
    P   1 1.00
                         2.91332320           1.00000000
    P   1 1.00
                         1.26212054           1.00000000
    P   1 1.00
                         0.50199776           1.00000000
    D   1 1.00
                         2.31353291           1.00000000
    D   1 1.00
                         0.71290724           1.00000000
    ****

  Cached 100.0% of DFT collocation blocks in 0.073 [GiB].

  Minimum eigenvalue in the overlap matrix is 2.7589615834E-02.
  Using Symmetric Orthogonalization.

  SCF Guess: Orbitals guess was supplied from a previous computation.

  ==> Iterations <==

                           Total Energy        Delta E     RMS |[F,P]|

   @DF-UKS iter   0:   -39.90890397962677   -3.99089e+01   6.30769e-03 
DIIS coefficients:  1.000 
    Occupation by irrep:
             A1    A2    B1    B2 
    DOCC [     3,    0,    0,    1 ]
    SOCC [     0,    0,    1,    0 ]

   @DF-UKS iter   1:   -39.84246157453936    6.64424e-02   1.40112e-03 DIIS
DIIS coefficients:  0.508  0.492 
    Occupation by irrep:
             A1    A2    B1    B2 
    DOCC [     3,    0,    0,    1 ]
    SOCC [     0,    0,    1,    0 ]

   @DF-UKS iter   2:   -39.84253329042996   -7.17159e-05   1.44596e-03 DIIS
DIIS coefficients:  0.037  0.016  0.947 
    Occupation by irrep:
             A1    A2    B1    B2 
    DOCC [     3,    0,    0,    1 ]
    SOCC [     0,    0,    1,    0 ]

   @DF-UKS iter   3:   -39.84288907050058   -3.55780e-04   4.14515e-05 DIIS
DIIS coefficients:  -0.006  -0.006  -0.101  1.112 
    Occupation by irrep:
             A1    A2    B1    B2 
    DOCC [     3,    0,    0,    1 ]
    SOCC [     0,    0,    1,    0 ]

   @DF-UKS iter   4:   -39.84288942137645   -3.50876e-07   5.55064e-06 DIIS
DIIS coefficients:  0.001  0.002  0.010  -0.368  1.355 
    Occupation by irrep:
             A1    A2    B1    B2 
    DOCC [     3,    0,    0,    1 ]
    SOCC [     0,    0,    1,    0 ]

   @DF-UKS iter   5:   -39.84288943257926   -1.12028e-08   1.33376e-06 DIIS
DIIS coefficients:  -0.000  -0.000  0.002  0.019  -0.205  1.185 
    Occupation by irrep:
             A1    A2    B1    B2 
    DOCC [     3,    0,    0,    1 ]
    SOCC [     0,    0,    1,    0 ]

   @DF-UKS iter   6:   -39.84288943344607   -8.66805e-10   1.74012e-07 DIIS
DIIS coefficients:  -0.000  -0.000  -0.000  0.003  0.004  -0.140  1.133 
    Occupation by irrep:
             A1    A2    B1    B2 
    DOCC [     3,    0,    0,    1 ]
    SOCC [     0,    0,    1,    0 ]

   @DF-UKS iter   7:   -39.84288943346114   -1.50706e-11   1.50962e-08 DIIS
DIIS coefficients:  0.000  0.000  0.000  -0.000  0.001  0.004  -0.091  1.087 
    Occupation by irrep:
             A1    A2    B1    B2 
    DOCC [     3,    0,    0,    1 ]
    SOCC [     0,    0,    1,    0 ]

   @DF-UKS iter   8:   -39.84288943346120   -6.39488e-14   9.59690e-10 DIIS

  DF guess converged.

  ==> DirectJK: Integral-Direct J/K Matrices <==

    J tasked:                  Yes
    K tasked:                  Yes
    wK tasked:                  No
    Integrals threads:           1
    Schwarz Cutoff:          1E-12

DIIS coefficients:  1.000 
    Occupation by irrep:
             A1    A2    B1    B2 
    DOCC [     3,    0,    0,    1 ]
    SOCC [     0,    0,    1,    0 ]

   @UKS iter   9:   -39.84287898651198   -3.98429e+01   6.74088e-06 DIIS
DIIS coefficients:  -0.029  1.029 
    Occupation by irrep:
             A1    A2    B1    B2 
    DOCC [     3,    0,    0,    1 ]
    SOCC [     0,    0,    1,    0 ]

   @UKS iter  10:   -39.84287899208203   -5.57005e-09   5.78438e-07 DIIS
DIIS coefficients:  -0.025  0.510  0.515 
    Occupation by irrep:
             A1    A2    B1    B2 
    DOCC [     3,    0,    0,    1 ]
    SOCC [     0,    0,    1,    0 ]

   @UKS iter  11:   -39.84287899210287   -2.08402e-11   5.35632e-07 DIIS
DIIS coefficients:  0.001  -0.026  -0.020  1.045 
    Occupation by irrep:
             A1    A2    B1    B2 
    DOCC [     3,    0,    0,    1 ]
    SOCC [     0,    0,    1,    0 ]

   @UKS iter  12:   -39.84287899215110   -4.82316e-11   1.58921e-08 DIIS
DIIS coefficients:  0.000  -0.008  -0.007  -0.078  1.093 
    Occupation by irrep:
             A1    A2    B1    B2 
    DOCC [     3,    0,    0,    1 ]
    SOCC [     0,    0,    1,    0 ]

   @UKS iter  13:   -39.84287899215119   -9.23706e-14   2.95598e-09 DIIS
  Energy and wave function converged.


  ==> Post-Iterations <==

   @Spin Contamination Metric:   3.618641915E-03
   @S^2 Expected:                7.500000000E-01
   @S^2 Observed:                7.536186419E-01
   @S   Expected:                5.000000000E-01
   @S   Observed:                5.000000000E-01

    Orbital Energies [Eh]
    ---------------------

    Alpha Occupied:                                                       

       1A1   -10.191716     2A1    -0.680985     3A1    -0.415413  
       1B2    -0.415413     1B1    -0.224587  

    Alpha Virtual:                                                        

       4A1     0.115312     2B2     0.182271     5A1     0.182271  
       2B1     0.536669     3B2     0.539143     6A1     0.539143  
       7A1     0.681238     4B2     0.890328     8A1     0.890330  
       9A1     0.944461     3B1     1.435980     1A2     1.435981  
       5B2     1.914976    10A1     1.914976    11A1     1.964115  
       6B2     2.006945     4B1     2.279412     2A2     2.561633  
       5B1     2.561635     7B2     2.718379    12A1     2.718379  
      13A1     3.250671     8B2     3.459534    14A1     3.459535  
      15A1     4.272336  

    Beta Occupied:                                                        

       1A1   -10.177718     2A1    -0.639995     3A1    -0.405374  
       1B2    -0.405374  

    Beta Virtual:                                                         

       1B1    -0.049696     4A1     0.131418     2B2     0.187701  
       5A1     0.187701     6A1     0.546855     3B2     0.546855  
       2B1     0.613983     7A1     0.706674     4B2     0.893824  
       8A1     0.893825     9A1     0.972439     3B1     1.482554  
       1A2     1.482554     5B2     1.918475    10A1     1.918476  
       6B2     2.001831    11A1     2.045814     4B1     2.285923  
       2A2     2.591239     5B1     2.591241     7B2     2.718660  
      12A1     2.718660    13A1     3.256995     8B2     3.467256  
      14A1     3.467256    15A1     4.309037  

    Final Occupation by Irrep:
             A1    A2    B1    B2 
    DOCC [     3,    0,    0,    1 ]
    SOCC [     0,    0,    1,    0 ]

  @UKS Final Energy:   -39.84287899215119

   => Energetics <=

    Nuclear Repulsion Energy =              9.6565436697888547
    One-Electron Energy =                 -71.6559991223830366
    Two-Electron Energy =                  27.4152032662448306
    DFT Exchange-Correlation Energy =      -5.2586268058018391
    Empirical Dispersion Energy =           0.0000000000000000
    VV10 Nonlocal Energy =                  0.0000000000000000
    Total Energy =                        -39.8428789921511921

  UHF NO Occupations:
  HONO-2 :    1 B2 1.9997351
  HONO-1 :    3 A1 1.9987200
  HONO-0 :    1 B1 1.0000000
  LUNO+0 :    4 A1 0.0012800
  LUNO+1 :    2 B2 0.0002649
  LUNO+2 :    5 A1 0.0002649
  LUNO+3 :    6 A1 0.0000004


Computation Completed


Properties will be evaluated at   0.000000,   0.000000,   0.000000 [a0]

Properties computed using the SCF density matrix

  Nuclear Dipole Moment: [e a0]
     X:    -0.0000      Y:    -0.0000      Z:     0.0000

  Electronic Dipole Moment: [e a0]
     X:     0.0000      Y:     0.0000      Z:    -0.0000

  Dipole Moment: [e a0]
     X:    -0.0000      Y:    -0.0000      Z:    -0.0000     Total:     0.0000

  Dipole Moment: [D]
     X:    -0.0000      Y:    -0.0000      Z:    -0.0000     Total:     0.0000


*** tstop() called on FACC02D75Y4MD6T.tld at Mon Sep 21 09:31:20 2020
Module time:
	user time   =       1.81 seconds =       0.03 minutes
	system time =       0.06 seconds =       0.00 minutes
	total time  =          2 seconds =       0.03 minutes
Total time:
	user time   =       4.29 seconds =       0.07 minutes
	system time =       0.15 seconds =       0.00 minutes
	total time  =          4 seconds =       0.07 minutes

*** tstart() called on FACC02D75Y4MD6T.tld
*** at Mon Sep 21 09:31:20 2020


         ------------------------------------------------------------
                                   SCF GRAD                          
                          Rob Parrish, Justin Turney,                
                       Andy Simmonett, and Alex Sokolov              
         ------------------------------------------------------------

  ==> Geometry <==

    Molecular point group: c2v
    Full point group: C2v

    Geometry (in Angstrom), charge = 0, multiplicity = 2:

       Center              X                  Y                   Z               Mass       
    ------------   -----------------  -----------------  -----------------  -----------------
         C            0.000000000000     0.000000000000    -0.000000199533    12.000000000000
         H            0.000000000000     0.000000000000    -1.081312647222     1.007825032230
         H           -0.000000000000     0.936445116044     0.540657511512     1.007825032230
         H            0.000000000000    -0.936445116044     0.540657511512     1.007825032230

           C
              BASIS           6-31G(D_P)           a2828f8bd65c52d276d3a5c7992328305af36e8a
              DF_BASIS_SCF    (6-31G(D_P) AUX)     130a2f96e8083cf241f9163199d111676f18ec06
           H
              BASIS           6-31G(D_P)           902186d0f3205710946c2c15d2c68458d6f6cc2a
              DF_BASIS_SCF    (6-31G(D_P) AUX)     1164366b470d7a66fddaf681ef9d1c28421b3e4a
           H
              BASIS           6-31G(D_P)           902186d0f3205710946c2c15d2c68458d6f6cc2a
              DF_BASIS_SCF    (6-31G(D_P) AUX)     1164366b470d7a66fddaf681ef9d1c28421b3e4a
           H
              BASIS           6-31G(D_P)           902186d0f3205710946c2c15d2c68458d6f6cc2a
              DF_BASIS_SCF    (6-31G(D_P) AUX)     1164366b470d7a66fddaf681ef9d1c28421b3e4a

  Nuclear repulsion =    9.656543669788855

  ==> Basis Set <==

  -AO BASIS SET INFORMATION:
    Name                   = 6-31G(D_P)
    Blend                  = 6-31G(D_P)
    Total number of shells = 15
    Number of primitives   = 30
    Number of AO           = 30
    Number of SO           = 30
    Maximum AM             = 2
    Spherical Harmonics    = FALSE

  -Contraction Scheme:
    Atom   Type   All Primitives // Shells:
   ------ ------ --------------------------
       1     C     10s 4p 1d // 3s 2p 1d 
       2     H     4s 1p // 2s 1p 
       3     H     4s 1p // 2s 1p 
       4     H     4s 1p // 2s 1p 

  ==> AO Basis Functions <==

    [ 6-31G(D_P) ]
    cartesian
    ****
    C   1
    S   6 1.00
                      3047.52490000           0.00183470
                       457.36951000           0.01403730
                       103.94869000           0.06884260
                        29.21015500           0.23218440
                         9.28666300           0.46794130
                         3.16392700           0.36231200
    S   3 1.00
                         7.86827240          -0.11933240
                         1.88128850          -0.16085420
                         0.54424930           1.14345640
    P   3 1.00
                         7.86827240           0.06899910
                         1.88128850           0.31642400
                         0.54424930           0.74430830
    S   1 1.00
                         0.16871440           1.00000000
    P   1 1.00
                         0.16871440           1.00000000
    D   1 1.00
                         0.80000000           1.00000000
    ****
    H   2
    S   3 1.00
                        18.73113700           0.03349460
                         2.82539370           0.23472695
                         0.64012170           0.81375733
    S   1 1.00
                         0.16127780           1.00000000
    P   1 1.00
                         1.10000000           1.00000000
    ****
    H   3
    S   3 1.00
                        18.73113700           0.03349460
                         2.82539370           0.23472695
                         0.64012170           0.81375733
    S   1 1.00
                         0.16127780           1.00000000
    P   1 1.00
                         1.10000000           1.00000000
    ****

  ==> DirectJKGrad: Integral-Direct SCF Gradients <==

    Gradient:                    1
    J tasked:                  Yes
    K tasked:                  Yes
    wK tasked:                  No
    Integrals threads:           1
    Schwarz Cutoff:          0E+00

  ==> DFT Potential <==

   => Composite Functional: B3LYP <= 

    B3LYP Hyb-GGA Exchange-Correlation Functional

    P. J. Stephens, F. J. Devlin, C. F. Chabalowski, and M. J. Frisch, J. Phys. Chem. 98, 11623 (1994)

    Deriv               =              1
    GGA                 =           TRUE
    Meta                =          FALSE

    Exchange Hybrid     =           TRUE
    MP2 Hybrid          =          FALSE

   => Exchange Functionals <=

    0.0800   Slater exchange
    0.7200         Becke 88

   => Exact (HF) Exchange <=

    0.2000               HF 

   => Correlation Functionals <=

    0.1900   Vosko, Wilk & Nusair (VWN5_RPA)
    0.8100   Lee, Yang & Parr

   => XC_HYB_GGA_XC_B3LYP Functional <=

    B3LYP
    P. J. Stephens, F. J. Devlin, C. F. Chabalowski, and M. J. Frisch, J. Phys. Chem. 98, 11623 (1994)
    GGA   =           TRUE
    Meta  =          FALSE
    LRC   =          FALSE
    Alpha =   1.000000E+00
    Omega =   0.000000E+00

    > Parameters <


   => Molecular Quadrature <=

    Radial Scheme          =       TREUTLER
    Pruning Scheme         =           FLAT
    Nuclear Scheme         =       TREUTLER

    BS radius alpha        =              1
    Pruning alpha          =              1
    Radial Points          =             75
    Spherical Points       =            302
    Total Points           =          87806
    Total Blocks           =            733
    Max Points             =            256
    Max Functions          =             30


  -Nuclear Gradient:
     Atom            X                  Y                   Z
    ------   -----------------  -----------------  -----------------
       1       -0.000000000000     0.000000000000    -0.000002695498
       2       -0.000000000000    -0.000000000000     1.575254593355
       3        0.000000000000    -1.364206142266    -0.787625948929
       4       -0.000000000000     1.364206142266    -0.787625948929


  -Core Hamiltonian Gradient:
     Atom            X                  Y                   Z
    ------   -----------------  -----------------  -----------------
       1        0.000000000000     0.000000000000    -0.000000574250
       2       -0.000000000000    -0.000000000000    -3.808766512308
       3       -0.000000000000     3.298482383108     1.904383543279
       4        0.000000000000    -3.298482383108     1.904383543279


  -Overlap Gradient:
     Atom            X                  Y                   Z
    ------   -----------------  -----------------  -----------------
       1       -0.000000000000    -0.000000000000    -0.000000095554
       2        0.000000000000    -0.000000000000     0.156381793741
       3        0.000000000000    -0.135430284703    -0.078190849093
       4       -0.000000000000     0.135430284703    -0.078190849093


  -Coulomb Gradient:
     Atom            X                  Y                   Z
    ------   -----------------  -----------------  -----------------
       1       -0.000000000000    -0.000000000000     0.000002149845
       2       -0.000000000000     0.000000000000     2.347892252310
       3        0.000000000000    -2.033331419962    -1.173947201078
       4       -0.000000000000     2.033331419962    -1.173947201078


  -Exchange Gradient:
     Atom            X                  Y                   Z
    ------   -----------------  -----------------  -----------------
       1        0.000000000000     0.000000000000    -0.000000066800
       2       -0.000000000000     0.000000000000    -0.066952588853
       3       -0.000000000000     0.057982565389     0.033476327827
       4        0.000000000000    -0.057982565389     0.033476327827


  -XC Gradient:
     Atom            X                  Y                   Z
    ------   -----------------  -----------------  -----------------
       1       -0.000000000000     0.000000000000     0.000002587474
       2        0.000000000000     0.000000000000    -0.203372510373
       3        0.000000000000     0.176125173089     0.101686682241
       4        0.000000000000    -0.176125173089     0.101686682241


  -Total Gradient:
     Atom            X                  Y                   Z
    ------   -----------------  -----------------  -----------------
       1        0.000000000000     0.000000000000     0.000001305217
       2        0.000000000000    -0.000000000000     0.000437027873
       3        0.000000000000    -0.000377725345    -0.000217445754
       4       -0.000000000000     0.000377725345    -0.000217445754


*** tstop() called on FACC02D75Y4MD6T.tld at Mon Sep 21 09:31:21 2020
Module time:
	user time   =       0.39 seconds =       0.01 minutes
	system time =       0.01 seconds =       0.00 minutes
	total time  =          1 seconds =       0.02 minutes
Total time:
	user time   =       4.68 seconds =       0.08 minutes
	system time =       0.16 seconds =       0.00 minutes
	total time  =          5 seconds =       0.08 minutes

			-----------------------------------------
			 OPTKING 2.0: for geometry optimizations 
			  - R.A. King,  Bethel University        
			-----------------------------------------
dynamic level          =                  0
conv_max_force         =           3.00e-04
conv_rms_force         =           0.00e+00
conv_max_DE            =           1.00e-06
conv_max_disp          =           1.20e-03
conv_rms_disp          =           0.00e+00
SD Hessian             =           1.00e+00
scale_connectivity     =           1.30e+00
interfragment_scale_connectivity =           1.80e+00
fragment_mode          =             single
interfragment_mode        =              fixed
intcos_generate_exit   =              false
print_params           =              false
print_lvl              = 3
ensure_bt_convergence =             false
rfo_follow_root        =              false
rfo_root               =                  0
rfo_normalization_max  =           1.00e+02
rsrfo_alpha_max        =          1.000e+08
step_type              =                RFO
opt. coordinates       = Redundant Internals
linesearch_static_N    =                  8
linesearch_static_min  =          1.000e-03
linesearch_static_max  =          1.000e-01
consecutive_backsteps  =                  0
intrafragment_H        =           Schlegel
interfragment_H        =            Default
H_update               =               BFGS
H_update_use_last      =                  2
freeze_intrafragment   =              false
intrafragment_step_limit=          5.00e-01
interfragment_step_limit=          5.00e-01
add_auxiliary_bonds   =               true
H_guess_every         =              false
auxiliary_bond_factor =          2.50e+00
H_update_limit         =               true
H_update_limit_scale   =           5.00e-01
H_update_limit_max     =           1.00e+00
H_update_den_tol       =           1.00e-07
interfragment_distance_inverse=       false
write_final_step_geometry=            false
maximum_H_bond_distance=           4.30e+00
read_cartesian_H       =              false
fb_fragments          =              false
fb_fragments_only     =              false
frozen_distance: 
frozen_bend: 
frozen_dihedral: 
frozen_cartesian: 
fixed_distance: 
fixed_bend: 
fixed_dihedral: 
print_trajectory_xyz_file =              false

	Previous internal coordinate definitions found.
	---Fragment 1 Geometry and Gradient---
	 C           0.0000000000        0.0000000000       -0.0000003771
	 H           0.0000000000        0.0000000000       -2.0433847592
	 H          -0.0000000000        1.7696248008        1.0216946244
	 H           0.0000000000       -1.7696248008        1.0216946244
	             0.0000000000        0.0000000000        0.0000013052
	             0.0000000000       -0.0000000000        0.0004370279
	             0.0000000000       -0.0003777253       -0.0002174458
	            -0.0000000000        0.0003777253       -0.0002174458

	---Fragment 1 Intrafragment Coordinates---
	 - Coordinate -           - BOHR/RAD -       - ANG/DEG -
	 R(1,2)           =         2.043384	       1.081312
	 R(1,3)           =         2.043388	       1.081314
	 R(1,4)           =         2.043388	       1.081314
	 B(2,1,3)         =         2.094396	     120.000040
	 B(2,1,4)         =         2.094396	     120.000040
	 B(3,1,4)         =         2.094394	     119.999920

	Current energy   :       -39.8428789922

	Energy change for the previous step:
		Projected    :        -0.0185426195
		Actual       :        -0.0105582627
	Energy ratio =    0.56941
B matrix
  0.000000  0.000000  1.000000  0.000000  0.000000 -1.000000  0.000000  0.000000
  0.000000  0.000000  0.000000  0.000000
  0.000000 -0.866025 -0.500001  0.000000  0.000000  0.000000 -0.000000  0.866025
  0.500001  0.000000  0.000000  0.000000
 -0.000000  0.866025 -0.500001  0.000000  0.000000  0.000000  0.000000  0.000000
  0.000000  0.000000 -0.866025  0.500001
 -0.000000  0.734076 -0.423818  0.000000 -0.489384  0.000000  0.000000 -0.244692
  0.423818  0.000000  0.000000  0.000000
  0.000000 -0.734076 -0.423818 -0.000000  0.489384  0.000000  0.000000  0.000000
  0.000000 -0.000000  0.244692  0.423818
 -0.000000 -0.000000  0.847637  0.000000  0.000000  0.000000 -0.000000  0.244692
 -0.423818  0.000000 -0.244692 -0.423818
Internal forces in au
   0.000436167477043   0.000436272818950   0.000436272818950   0.000000133293041
   0.000000133293041  -0.000000266586081

	Performing BFGS update.
	Previous computed or guess Hessian on step 1.
	Steps to be used in Hessian update: 1

Updated Hessian (in au)
  0.285884  0.007569  0.007569  0.000000  0.000000 -0.000001
  0.007569  0.285884  0.007569  0.000000  0.000000 -0.000001
  0.007569  0.007569  0.285884  0.000000  0.000000 -0.000001
  0.000000  0.000000  0.000000  0.106667 -0.053333 -0.053333
  0.000000  0.000000  0.000000 -0.053333  0.106667 -0.053333
 -0.000001 -0.000001 -0.000001 -0.053333 -0.053333  0.106667
	Projection matrix for redundancies.
  1.000000 -0.000000 -0.000000  0.000000  0.000000 -0.000000
 -0.000000  1.000000  0.000000  0.000000 -0.000000  0.000000
 -0.000000  0.000000  1.000000  0.000000 -0.000000  0.000000
  0.000000 -0.000000  0.000000  0.666667 -0.333333 -0.333333
  0.000000  0.000000 -0.000000 -0.333333  0.666667 -0.333333
 -0.000000  0.000000  0.000000 -0.333333 -0.333333  0.666667
Constraint matrix
  0.000000  0.000000  0.000000  0.000000  0.000000  0.000000
  0.000000  0.000000  0.000000  0.000000  0.000000  0.000000
  0.000000  0.000000  0.000000  0.000000  0.000000  0.000000
  0.000000  0.000000  0.000000  0.000000  0.000000  0.000000
  0.000000  0.000000  0.000000  0.000000  0.000000  0.000000
  0.000000  0.000000  0.000000  0.000000  0.000000  0.000000
	Internal forces in au, after projection of redundancies and constraints.
  0.000436  0.000436  0.000436  0.000000  0.000000 -0.000000
Projected (PHP) Hessian matrix
  0.285884  0.007569  0.007569  0.000000  0.000000 -0.000001
  0.007569  0.285884  0.007569  0.000000  0.000000 -0.000001
  0.007569  0.007569  0.285884  0.000000  0.000000 -0.000001
  0.000000  0.000000  0.000000  0.106667 -0.053333 -0.053333
  0.000000  0.000000  0.000000 -0.053333  0.106667 -0.053333
 -0.000001 -0.000001 -0.000001 -0.053333 -0.053333  0.106667
	Taking RFO optimization step.
Eigenvalues of scaled RFO matrix.
 -0.000002 -0.000000  0.160000  0.160000  0.278315  0.278315
  0.301024
First eigenvector (unnormalized) of scaled RFO matrix.
  0.001449  0.001449  0.001449  0.000001  0.000001 -0.000002  0.999997
	Going to follow RFO solution 1.
	Using RFO vector 1.
	rfo_root is 1

Scaled RFO eigenvalue 1:   -0.0000018966 (or 2*-0.0000009483  )
eigenvector:
  0.001449  0.001449  0.001449  0.000001  0.000001 -0.000002  1.000000

Projection of redundancies out of step:
	Original dq     Projected dq     Difference
	    0.001449        0.001449       0.000000
	    0.001449        0.001449       0.000000
	    0.001449        0.001449       0.000000
	    0.000001        0.000001       0.000000
	    0.000001        0.000001       0.000000
	   -0.000002       -0.000002       0.000000
dq:
  0.001449  0.001449  0.001449  0.000001  0.000001 -0.000002
fq:
  0.000436  0.000436  0.000436  0.000000  0.000000 -0.000000
[...]
 [ 0.0000000000e+00  9.9781820406e-04  4.7334411073e-04]
 [ 0.0000000000e+00  8.2088458633e-04 -3.7126161223e-04]]

[[-7.0846130228e-20  5.7850255500e-04  2.1439546738e-06]
 [ 2.1785486793e-20 -1.7789199962e-04 -1.0607617647e-04]
 [ 1.0052936811e-19 -8.2088458633e-04 -3.7126161223e-04]
 [ 1.2219748697e-19 -9.9781820406e-04  4.7334411073e-04]]

[[ 0.0000000000e+00 -3.7887957488e-04 -1.4010804023e-06]
 [ 0.0000000000e+00 -2.3841053946e-04 -1.0602447108e-04]
 [ 0.0000000000e+00  8.6177356268e-04  6.3568749795e-04]
 [ 0.0000000000e+00  6.8404107179e-04 -5.3206108650e-04]]

[[-4.6399365864e-20  3.7887957488e-04 -1.4010804023e-06]
 [-2.9196870403e-20  2.3841053946e-04 -1.0602447108e-04]
 [ 8.3770870906e-20 -6.8404107179e-04 -5.3206108650e-04]
 [ 1.0553682351e-19 -8.6177356268e-04  6.3568749795e-04]]
Gradients in B-matrix coordinates
 disp 0:   -0.0012950515   0.0004722346   0.0007255824
 disp 1:    0.0012845292  -0.0007222413  -0.0004687953
 disp 2:    0.0005901782  -0.0016330864   0.0004723990
 disp 3:   -0.0006043045   0.0013887337  -0.0002138025
 disp 4:    0.0005999624   0.0002155446  -0.0013869975
 disp 5:   -0.0005944896  -0.0004707004   0.0016347912

    Force Constants for irrep A1 in mass-weighted, symmetry-adapted cartesian coordinates.

[[ 0.2579580636 -0.1194479289 -0.1194414902]
 [-0.1194479289  0.3021820083 -0.0686223276]
 [-0.1194414902 -0.0686223276  0.3021788672]]

    Normal coordinates (non-mass-weighted) for irrep A1:

[[ 0.0000000000e+00  0.0000000000e+00  0.0000000000e+00]
 [ 0.0000000000e+00  0.0000000000e+00  0.0000000000e+00]
 [ 9.4812802531e-02 -8.8356756502e-06  8.8212072870e-02]
 [ 0.0000000000e+00  0.0000000000e+00  0.0000000000e+00]
 [ 0.0000000000e+00  0.0000000000e+00  0.0000000000e+00]
 [-7.6810331954e-01 -5.7502776375e-01  7.0947790532e-02]
 [ 0.0000000000e+00  0.0000000000e+00  0.0000000000e+00]
 [-3.3920694215e-01  4.9809127059e-01  3.6463899724e-01]
 [-1.8040823852e-01  2.8756648431e-01 -5.6063691493e-01]
 [ 0.0000000000e+00  0.0000000000e+00  0.0000000000e+00]
 [ 3.3920694215e-01 -4.9809127059e-01 -3.6463899724e-01]
 [-1.8040823852e-01  2.8756648431e-01 -5.6063691493e-01]]
Gradients in B-matrix coordinates
 disp 0:   -0.0000406666

    Force Constants for irrep B1 in mass-weighted, symmetry-adapted cartesian coordinates.

[[0.0081333182]]

    Normal coordinates (non-mass-weighted) for irrep B1:

[[ 0.1295022679]
 [ 0.          ]
 [ 0.          ]
 [-0.5139886016]
 [ 0.          ]
 [ 0.          ]
 [-0.5139863584]
 [ 0.          ]
 [ 0.          ]
 [-0.5139863584]
 [ 0.          ]
 [ 0.          ]]
Gradients in B-matrix coordinates
 disp 0:   -0.0012897527  -0.0008446111
 disp 1:    0.0012897527   0.0008446111

    Force Constants for irrep B2 in mass-weighted, symmetry-adapted cartesian coordinates.

[[0.2579505467 0.1689192825]
 [0.1689192825 0.2335517858]]

    Normal coordinates (non-mass-weighted) for irrep B2:

[[ 0.            0.          ]
 [-0.0948126677  0.0882122182]
 [ 0.            0.          ]
 [ 0.            0.          ]
 [-0.0154334971 -0.7711616956]
 [ 0.            0.          ]
 [ 0.            0.          ]
 [ 0.5721758441 -0.1395830374]
 [ 0.3392575661  0.3646414482]
 [ 0.            0.          ]
 [ 0.5721758441 -0.1395830374]
 [-0.3392575661 -0.3646414482]]

    Force constant matrix for all computed irreps in mass-weighted SALCS.

[[ 0.2579580636 -0.1194479289 -0.1194414902  0.            0.
   0.          ]
 [-0.1194479289  0.3021820083 -0.0686223276  0.            0.
   0.          ]
 [-0.1194414902 -0.0686223276  0.3021788672  0.            0.
   0.          ]
 [ 0.            0.            0.            0.0081333182  0.
   0.          ]
 [ 0.            0.            0.            0.            0.2579505467
   0.1689192825]
 [ 0.            0.            0.            0.            0.1689192825
   0.2335517858]]

    Force constants in mass-weighted Cartesian coordinates.

[[ 0.0016368307  0.            0.           -0.001882703   0.
   0.           -0.0018826948  0.            0.           -0.0018826948
   0.            0.          ]
 [ 0.            0.0519125601  0.            0.           -0.0159595387
   0.            0.           -0.0815856789 -0.0378894433  0.
  -0.0815856789  0.0378894433]
 [ 0.            0.            0.0519140729  0.            0.
  -0.1034643493  0.           -0.0378885698 -0.0378358837  0.
   0.0378885698 -0.0378358837]
 [-0.001882703   0.            0.            0.0021655084  0.
   0.            0.002165499   0.            0.            0.002165499
   0.            0.          ]
 [ 0.           -0.0159595387  0.            0.            0.0458846857
   0.            0.            0.004592867  -0.0238398109  0.
   0.004592867   0.0238398109]
 [ 0.            0.           -0.1034643493  0.            0.
   0.3707846133  0.            0.0039606583 -0.0068838532  0.
  -0.0039606583 -0.0068838532]
 [-0.0018826948  0.            0.            0.002165499   0.
   0.            0.0021654895  0.            0.            0.0021654895
   0.            0.          ]
 [ 0.           -0.0815856789 -0.0378885698  0.            0.004592867
   0.0039606583  0.            0.2895538852  0.1406804162  0.
  -0.0126249821 -0.0139017416]
 [ 0.           -0.0378894433 -0.0378358837  0.           -0.0238398109
  -0.0068838532  0.            0.1406804162  0.1271087847  0.
   0.0139017416  0.0103326011]
 [-0.0018826948  0.            0.            0.002165499   0.
   0.            0.0021654895  0.            0.            0.0021654895
   0.            0.          ]
 [ 0.           -0.0815856789  0.0378885698  0.            0.004592867
  -0.0039606583  0.           -0.0126249821  0.0139017416  0.
   0.2895538852 -0.1406804162]
 [ 0.            0.0378894433 -0.0378358837  0.            0.0238398109
  -0.0068838532  0.           -0.0139017416  0.0103326011  0.
  -0.1406804162  0.1271087847]]

    Force constants in Cartesian coordinates.

[[ 0.0196419682  0.            0.           -0.0065473418  0.
   0.           -0.0065473132  0.            0.           -0.0065473132
   0.            0.          ]
 [ 0.            0.6229507215  0.            0.           -0.0555013475
   0.            0.           -0.283724687  -0.13176541    0.
  -0.283724687   0.13176541  ]
 [ 0.            0.            0.6229688748  0.            0.
  -0.3598105757  0.           -0.1317623725 -0.1315791495  0.
   0.1317623725 -0.1315791495]
 [-0.0065473418  0.            0.            0.0021824536  0.
   0.            0.0021824441  0.            0.            0.0021824441
   0.            0.          ]
 [ 0.           -0.0555013475  0.            0.            0.0462437348
   0.            0.            0.0046288063 -0.0240263582  0.
   0.0046288063  0.0240263582]
 [ 0.            0.           -0.3598105757  0.            0.
   0.3736860148  0.            0.0039916506 -0.0069377195  0.
  -0.0039916506 -0.0069377195]
 [-0.0065473132  0.            0.            0.0021824441  0.
   0.            0.0021824346  0.            0.            0.0021824346
   0.            0.          ]
 [ 0.           -0.283724687  -0.1317623725  0.            0.0046288063
   0.0039916506  0.            0.2918196536  0.141781245   0.
  -0.012723773  -0.0140105232]
 [ 0.           -0.13176541   -0.1315791495  0.           -0.0240263582
  -0.0069377195  0.            0.141781245   0.1281034151  0.
   0.0140105232  0.010413454 ]
 [-0.0065473132  0.            0.            0.0021824441  0.
   0.            0.0021824346  0.            0.            0.0021824346
   0.            0.          ]
 [ 0.           -0.283724687   0.1317623725  0.            0.0046288063
  -0.0039916506  0.           -0.012723773   0.0140105232  0.
   0.2918196536 -0.141781245 ]
 [ 0.            0.13176541   -0.1315791495  0.            0.0240263582
  -0.0069377195  0.           -0.0140105232  0.010413454   0.
  -0.141781245   0.1281034151]]

-------------------------------------------------------------


  ==> Harmonic Vibrational Analysis <==

  non-mass-weighted Hessian:       Symmetric? True   Hermitian? True   Lin Dep Dim?  6 (0)
  projection of translations (True) and rotations (True) removed 6 degrees of freedom (6)
  total projector:                 Symmetric? True   Hermitian? True   Lin Dep Dim?  6 (6)
  mass-weighted Hessian:           Symmetric? True   Hermitian? True   Lin Dep Dim?  6 (0)
  pre-proj  low-frequency mode:    0.0000i [cm^-1]
  pre-proj  low-frequency mode:    0.0000i [cm^-1]
  pre-proj  low-frequency mode:    0.0000  [cm^-1]
  pre-proj  low-frequency mode:    0.0000  [cm^-1]
  pre-proj  low-frequency mode:    0.0000  [cm^-1]
  pre-proj  low-frequency mode:    0.0000  [cm^-1]
  pre-proj  all modes:['0.0000i' '0.0000i' '0.0000' '0.0000' '0.0000' '0.0000' '463.5944'
 '1420.7839' '1420.8382' '3130.2265' '3311.9676' '3311.9996']
  projected mass-weighted Hessian: Symmetric? True   Hermitian? True   Lin Dep Dim?  6 (6)
  post-proj low-frequency mode:    0.0000i [cm^-1] (TR)
  post-proj low-frequency mode:    0.0000i [cm^-1] (TR)
  post-proj low-frequency mode:    0.0000i [cm^-1] (TR)
  post-proj low-frequency mode:    0.0000  [cm^-1] (TR)
  post-proj low-frequency mode:    0.0000  [cm^-1] (TR)
  post-proj low-frequency mode:    0.0000  [cm^-1] (TR)
  post-proj  all modes:['0.0000i' '0.0000i' '0.0000i' '0.0000' '0.0000' '0.0000' '463.5944'
 '1420.7839' '1420.8382' '3130.2265' '3311.9676' '3311.9996']

  Vibration                       7                   8                   9           
  Freq [cm^-1]                 463.5944           1420.7839           1420.8382       
  Irrep                           B1                  B2                  A1          
  Reduced mass [u]              1.2356              1.1021              1.1021        
  Force const [mDyne/A]         0.1565              1.3108              1.3109        
  Turning point v=0 [a0]        0.4585              0.2773              0.2773        
  RMS dev v=0 [a0 u^1/2]        0.3604              0.2058              0.2058        
  Char temp [K]                667.0091           2044.1917           2044.2698       
  ----------------------------------------------------------------------------------
      1   C               -0.14 -0.00  0.00    0.00 -0.09 -0.00   -0.00  0.00 -0.09   
      2   H                0.57 -0.00 -0.00   -0.00  0.81 -0.00    0.00 -0.00 -0.07   
      3   H                0.57 -0.00  0.00    0.00  0.15 -0.38   -0.00 -0.38  0.59   
      4   H                0.57 -0.00 -0.00    0.00  0.15  0.38    0.00  0.38  0.59   

  Vibration                       10                  11                  12          
  Freq [cm^-1]                3130.2265           3311.9676           3311.9996       
  Irrep                           A1                  B2                  A1          
  Reduced mass [u]              1.0078              1.1183              1.1183        
  Force const [mDyne/A]         5.8182              7.2276              7.2277        
  Turning point v=0 [a0]        0.1954              0.1803              0.1803        
  RMS dev v=0 [a0 u^1/2]        0.1387              0.1348              0.1348        
  Char temp [K]               4503.6990           4765.1840           4765.2300       
  ----------------------------------------------------------------------------------
      1   C               -0.00 -0.00  0.00    0.00 -0.10  0.00    0.00 -0.00 -0.10   
      2   H               -0.00 -0.00  0.58   -0.00 -0.02 -0.00    0.00 -0.00  0.81   
      3   H                0.00 -0.50 -0.29    0.00  0.61  0.36    0.00  0.36  0.19   
      4   H               -0.00  0.50 -0.29   -0.00  0.61 -0.36   -0.00 -0.36  0.19   

  ==> Thermochemistry Components <==

  Entropy, S
    Electronic S            1.377 [cal/(mol K)]        5.763 [J/(mol K)]       0.00219507 [mEh/K] (multiplicity = 2)
    Translational S        34.068 [cal/(mol K)]      142.539 [J/(mol K)]       0.05429035 [mEh/K] (mol. weight = 15.0235 [u], P = 101325.00 [Pa])
    Rotational S           12.610 [cal/(mol K)]       52.762 [J/(mol K)]       0.02009606 [mEh/K] (symmetry no. = 2)
    Vibrational S           0.789 [cal/(mol K)]        3.300 [J/(mol K)]       0.00125677 [mEh/K]
  Total S                  48.844 [cal/(mol K)]      204.364 [J/(mol K)]       0.07783824 [mEh/K]
  Correction S              0.000 [cal/(mol K)]        0.000 [J/(mol K)]       0.00000000 [mEh/K]

  Constant volume heat capacity, Cv
    Electronic Cv           0.000 [cal/(mol K)]        0.000 [J/(mol K)]       0.00000000 [mEh/K]
    Translational Cv        2.981 [cal/(mol K)]       12.472 [J/(mol K)]       0.00475022 [mEh/K]
    Rotational Cv           2.981 [cal/(mol K)]       12.472 [J/(mol K)]       0.00475022 [mEh/K]
    Vibrational Cv          1.528 [cal/(mol K)]        6.394 [J/(mol K)]       0.00243526 [mEh/K]
  Total Cv                  7.490 [cal/(mol K)]       31.337 [J/(mol K)]       0.01193569 [mEh/K]
  Correction Cv             0.000 [cal/(mol K)]        0.000 [J/(mol K)]       0.00000000 [mEh/K]

  Constant pressure heat capacity, Cp
    Electronic Cp           0.000 [cal/(mol K)]        0.000 [J/(mol K)]       0.00000000 [mEh/K]
    Translational Cp        4.968 [cal/(mol K)]       20.786 [J/(mol K)]       0.00791703 [mEh/K]
    Rotational Cp           2.981 [cal/(mol K)]       12.472 [J/(mol K)]       0.00475022 [mEh/K]
    Vibrational Cp          1.528 [cal/(mol K)]        6.394 [J/(mol K)]       0.00243526 [mEh/K]
  Total Cp                  9.477 [cal/(mol K)]       39.652 [J/(mol K)]       0.01510250 [mEh/K]
  Correction Cp             0.000 [cal/(mol K)]        0.000 [J/(mol K)]       0.00000000 [mEh/K]

  ==> Thermochemistry Energy Analysis <==

  Raw electronic energy, E0
  Total E0, Electronic energy at well bottom at 0 [K]                  -39.84287971 [Eh]

  Zero-point energy, ZPE_vib = Sum_i nu_i / 2
    Electronic ZPE          0.000 [kcal/mol]        0.000 [kJ/mol]       0.00000000 [Eh]
    Translational ZPE       0.000 [kcal/mol]        0.000 [kJ/mol]       0.00000000 [Eh]
    Rotational ZPE          0.000 [kcal/mol]        0.000 [kJ/mol]       0.00000000 [Eh]
    Vibrational ZPE        18.669 [kcal/mol]       78.113 [kJ/mol]       0.02975153 [Eh]        6529.705 [cm^-1]
  Correction ZPE           18.669 [kcal/mol]       78.113 [kJ/mol]       0.02975153 [Eh]        6529.705 [cm^-1]
  Total ZPE, Electronic energy at 0 [K]                                -39.81312818 [Eh]

  Thermal Energy, E (includes ZPE)
    Electronic E            0.000 [kcal/mol]        0.000 [kJ/mol]       0.00000000 [Eh]
    Translational E         0.889 [kcal/mol]        3.718 [kJ/mol]       0.00141628 [Eh]
    Rotational E            0.889 [kcal/mol]        3.718 [kJ/mol]       0.00141628 [Eh]
    Vibrational E          18.836 [kcal/mol]       78.811 [kJ/mol]       0.03001764 [Eh]
  Correction E             20.614 [kcal/mol]       86.248 [kJ/mol]       0.03285019 [Eh]
  Total E, Electronic energy at  298.15 [K]                            -39.81002951 [Eh]

  Enthalpy, H_trans = E_trans + k_B * T
    Electronic H            0.000 [kcal/mol]        0.000 [kJ/mol]       0.00000000 [Eh]
    Translational H         1.481 [kcal/mol]        6.197 [kJ/mol]       0.00236046 [Eh]
    Rotational H            0.889 [kcal/mol]        3.718 [kJ/mol]       0.00141628 [Eh]
    Vibrational H          18.836 [kcal/mol]       78.811 [kJ/mol]       0.03001764 [Eh]
  Correction H             21.206 [kcal/mol]       88.727 [kJ/mol]       0.03379438 [Eh]
  Total H, Enthalpy at  298.15 [K]                                     -39.80908533 [Eh]

  Gibbs free energy, G = H - T * S
    Electronic G           -0.411 [kcal/mol]       -1.718 [kJ/mol]      -0.00065446 [Eh]
    Translational G        -8.676 [kcal/mol]      -36.301 [kJ/mol]      -0.01382621 [Eh]
    Rotational G           -2.871 [kcal/mol]      -12.013 [kJ/mol]      -0.00457536 [Eh]
    Vibrational G          18.601 [kcal/mol]       77.828 [kJ/mol]       0.02964294 [Eh]
  Correction G              6.643 [kcal/mol]       27.796 [kJ/mol]       0.01058691 [Eh]
  Total G, Free enthalpy at  298.15 [K]                                -39.83229280 [Eh]
  ## New Matrix (Symmetry 0) ##
  Irrep: 1 Size: 12 x 12

                 1                   2                   3                   4                   5

    1     0.01964196818023     0.00000000000000     0.00000000000000    -0.00654734177644     0.00000000000000
    2     0.00000000000000     0.62295072148490     0.00000000000000     0.00000000000000    -0.05550134749294
    3     0.00000000000000     0.00000000000000     0.62296887481725     0.00000000000000     0.00000000000000
    4    -0.00654734177644     0.00000000000000     0.00000000000000     0.00218245360873     0.00000000000000
    5     0.00000000000000    -0.05550134749294     0.00000000000000     0.00000000000000     0.04624373484272
    6     0.00000000000000     0.00000000000000    -0.35981057574435     0.00000000000000     0.00000000000000
    7    -0.00654731320189     0.00000000000000     0.00000000000000     0.00218244408385     0.00000000000000
    8     0.00000000000000    -0.28372468699598    -0.13176237245804     0.00000000000000     0.00462880632511
    9     0.00000000000000    -0.13176540995937    -0.13157914953645     0.00000000000000    -0.02402635819652
   10    -0.00654731320189     0.00000000000000     0.00000000000000     0.00218244408385     0.00000000000000
   11     0.00000000000000    -0.28372468699598     0.13176237245804     0.00000000000000     0.00462880632511
   12     0.00000000000000     0.13176540995937    -0.13157914953645     0.00000000000000     0.02402635819652

                 6                   7                   8                   9                  10

    1     0.00000000000000    -0.00654731320189     0.00000000000000     0.00000000000000    -0.00654731320189
    2     0.00000000000000     0.00000000000000    -0.28372468699598    -0.13176540995937     0.00000000000000
    3    -0.35981057574435     0.00000000000000    -0.13176237245804    -0.13157914953645     0.00000000000000
    4     0.00000000000000     0.00218244408385     0.00000000000000     0.00000000000000     0.00218244408385
    5     0.00000000000000     0.00000000000000     0.00462880632511    -0.02402635819652     0.00000000000000
    6     0.37368601481656     0.00000000000000     0.00399165061809    -0.00693771953611     0.00000000000000
    7     0.00000000000000     0.00218243455902     0.00000000000000     0.00000000000000     0.00218243455902
    8     0.00399165061809     0.00000000000000     0.29181965364385     0.14178124499792     0.00000000000000
    9    -0.00693771953611     0.00000000000000     0.14178124499792     0.12810341505471     0.00000000000000
   10     0.00000000000000     0.00218243455902     0.00000000000000     0.00000000000000     0.00218243455902
   11    -0.00399165061809     0.00000000000000    -0.01272377297297     0.01401052315797     0.00000000000000
   12    -0.00693771953611     0.00000000000000    -0.01401052315797     0.01041345401785     0.00000000000000

                11                  12

    1     0.00000000000000     0.00000000000000
    2    -0.28372468699598     0.13176540995937
    3     0.13176237245804    -0.13157914953645
    4     0.00000000000000     0.00000000000000
    5     0.00462880632511     0.02402635819652
    6    -0.00399165061809    -0.00693771953611
    7     0.00000000000000     0.00000000000000
    8    -0.01272377297297    -0.01401052315797
    9     0.01401052315797     0.01041345401785
   10     0.00000000000000     0.00000000000000
   11     0.29181965364385    -0.14178124499792
   12    -0.14178124499792     0.12810341505471




    Psi4 stopped on: Monday, 21 September 2020 09:31AM
    Psi4 wall time for execution: 0:00:34.72

*** Psi4 exiting successfully. Buy a developer a beer!
Optimizer: Optimization complete!
 10 displacements needed.
 1 2 3 4 5 6 7 8 9 10
Warning: used thermodynamics relations inappropriate for low-frequency modes: ['463.5944']
