
    -----------------------------------------------------------------------
          Psi4: An Open-Source Ab Initio Electronic Structure Package
                               Psi4 1.3.2 release

                         Git: Rev {HEAD} ecbda83 


    R. M. Parrish, L. A. Burns, D. G. A. Smith, A. C. Simmonett,
    A. E. DePrince III, E. G. Hohenstein, U. Bozkaya, A. Yu. Sokolov,
    R. Di Remigio, R. M. Richard, J. F. Gonthier, A. M. James,
    H. R. McAlexander, A. Kumar, M. Saitow, X. Wang, B. P. Pritchard,
    P. Verma, H. F. Schaefer III, K. Patkowski, R. A. King, E. F. Valeev,
    F. A. Evangelista, J. M. Turney, T. D. Crawford, and C. D. Sherrill,
    J. Chem. Theory Comput. 13(7) pp 3185--3197 (2017).
    (doi: 10.1021/acs.jctc.7b00174)


                         Additional Contributions by
    P. Kraus, H. Kruse, M. H. Lechner, M. C. Schieber, R. A. Shaw,
    A. Alenaizan, R. Galvelis, Z. L. Glick, S. Lehtola, and J. P. Misiewicz

    -----------------------------------------------------------------------


    Psi4 started on: Monday, 21 September 2020 09:43AM

    Process ID: 45766
    Host:       FACC02D75Y4MD6T.tld
    PSIDATADIR: /Users/blais.ch/anaconda3/envs/rmg_env/share/psi4
    Memory:     500.0 MiB
    Threads:    1
    
  ==> Input File <==

--------------------------------------------------------------------------
memory 1024 mb

molecule mol {
0 1
C 0.00000000 0.00000000 0.00000000
C -1.31000000 0.00000000 0.00050000
H -1.85000000 -0.93530000 -0.00050000
H -1.85000000 0.93530000 0.00180000
H 0.54000000 0.93530000 0.00100000
H 0.54000000 -0.93530000 0.00320000

}

set {
  scf_type DIRECT
  basis 6-31G(d_p)
  reference rks
  geom_maxiter 50
  print 3
}

optimize('b3lyp')
scf_e, wfn=frequencies('b3lyp', return_wfn=True, dertype=1)
wfn.hessian().print_out()
--------------------------------------------------------------------------

  Memory set to 976.562 MiB by Python driver.
gradient() will perform analytic gradient computation.

*** tstart() called on FACC02D75Y4MD6T.tld
*** at Mon Sep 21 09:43:51 2020

   => Loading Basis Set <=

    Name: 6-31G(D_P)
    Role: ORBITAL
    Keyword: BASIS
    atoms 1-2 entry C          line   115 file /Users/blais.ch/anaconda3/envs/rmg_env/share/psi4/basis/6-31g_d_p_.gbs 
    atoms 3-6 entry H          line    44 file /Users/blais.ch/anaconda3/envs/rmg_env/share/psi4/basis/6-31g_d_p_.gbs 


         ---------------------------------------------------------
                                   SCF
               by Justin Turney, Rob Parrish, Andy Simmonett
                          and Daniel G. A. Smith
                              RKS Reference
                        1 Threads,    976 MiB Core
         ---------------------------------------------------------

  ==> Geometry <==

    Molecular point group: c1
    Full point group: C1

    Geometry (in Angstrom), charge = 0, multiplicity = 1:

       Center              X                  Y                   Z               Mass       
    ------------   -----------------  -----------------  -----------------  -----------------
         C            0.655000000000     0.000000000000    -0.000411791020    12.000000000000
         C           -0.655000000000     0.000000000000     0.000088208980    12.000000000000
         H           -1.195000000000    -0.935300000000    -0.000911791020     1.007825032230
         H           -1.195000000000     0.935300000000     0.001388208980     1.007825032230
         H            1.195000000000     0.935300000000     0.000588208980     1.007825032230
         H            1.195000000000    -0.935300000000     0.002788208980     1.007825032230

           C
              BASIS           6-31G(D_P)           a2828f8bd65c52d276d3a5c7992328305af36e8a
           C
              BASIS           6-31G(D_P)           a2828f8bd65c52d276d3a5c7992328305af36e8a
           H
              BASIS           6-31G(D_P)           902186d0f3205710946c2c15d2c68458d6f6cc2a
           H
              BASIS           6-31G(D_P)           902186d0f3205710946c2c15d2c68458d6f6cc2a
           H
              BASIS           6-31G(D_P)           902186d0f3205710946c2c15d2c68458d6f6cc2a
           H
              BASIS           6-31G(D_P)           902186d0f3205710946c2c15d2c68458d6f6cc2a

  Running in c1 symmetry.

  Rotational constants: A =      4.78022  B =      1.05010  C =      0.86097 [cm^-1]
  Rotational constants: A = 143307.39031  B =  31481.09931  C =  25811.08300 [MHz]
  Nuclear repulsion =   33.785682010124582

  Charge       = 0
  Multiplicity = 1
  Electrons    = 16
  Nalpha       = 8
  Nbeta        = 8

  ==> Algorithm <==

  SCF Algorithm Type is DIRECT.
  DIIS enabled.
  MOM disabled.
  Fractional occupation disabled.
  Guess Type is SAD.
  Energy threshold   = 1.00e-08
  Density threshold  = 1.00e-08
  Integral threshold = 0.00e+00

  ==> Primary Basis <==

  -AO BASIS SET INFORMATION:
    Name                   = 6-31G(D_P)
    Blend                  = 6-31G(D_P)
    Total number of shells = 24
    Number of primitives   = 50
    Number of AO           = 50
    Number of SO           = 50
    Maximum AM             = 2
    Spherical Harmonics    = FALSE

  -Contraction Scheme:
    Atom   Type   All Primitives // Shells:
   ------ ------ --------------------------
       1     C     10s 4p 1d // 3s 2p 1d 
       2     C     10s 4p 1d // 3s 2p 1d 
       3     H     4s 1p // 2s 1p 
       4     H     4s 1p // 2s 1p 
       5     H     4s 1p // 2s 1p 
       6     H     4s 1p // 2s 1p 

  ==> AO Basis Functions <==

    [ 6-31G(D_P) ]
    cartesian
    ****
    C   1
    S   6 1.00
                      3047.52490000           0.00183470
                       457.36951000           0.01403730
                       103.94869000           0.06884260
                        29.21015500           0.23218440
                         9.28666300           0.46794130
                         3.16392700           0.36231200
    S   3 1.00
                         7.86827240          -0.11933240
                         1.88128850          -0.16085420
                         0.54424930           1.14345640
    P   3 1.00
                         7.86827240           0.06899910
                         1.88128850           0.31642400
                         0.54424930           0.74430830
    S   1 1.00
                         0.16871440           1.00000000
    P   1 1.00
                         0.16871440           1.00000000
    D   1 1.00
                         0.80000000           1.00000000
    ****
    C   2
    S   6 1.00
                      3047.52490000           0.00183470
                       457.36951000           0.01403730
                       103.94869000           0.06884260
                        29.21015500           0.23218440
                         9.28666300           0.46794130
                         3.16392700           0.36231200
    S   3 1.00
                         7.86827240          -0.11933240
                         1.88128850          -0.16085420
                         0.54424930           1.14345640
    P   3 1.00
                         7.86827240           0.06899910
                         1.88128850           0.31642400
                         0.54424930           0.74430830
    S   1 1.00
                         0.16871440           1.00000000
    P   1 1.00
                         0.16871440           1.00000000
    D   1 1.00
                         0.80000000           1.00000000
    ****
    H   3
    S   3 1.00
                        18.73113700           0.03349460
                         2.82539370           0.23472695
                         0.64012170           0.81375733
    S   1 1.00
                         0.16127780           1.00000000
    P   1 1.00
                         1.10000000           1.00000000
    ****
    H   4
    S   3 1.00
                        18.73113700           0.03349460
                         2.82539370           0.23472695
                         0.64012170           0.81375733
    S   1 1.00
                         0.16127780           1.00000000
    P   1 1.00
                         1.10000000           1.00000000
    ****
    H   5
    S   3 1.00
                        18.73113700           0.03349460
                         2.82539370           0.23472695
                         0.64012170           0.81375733
    S   1 1.00
                         0.16127780           1.00000000
    P   1 1.00
                         1.10000000           1.00000000
    ****
    H   6
    S   3 1.00
                        18.73113700           0.03349460
                         2.82539370           0.23472695
                         0.64012170           0.81375733
    S   1 1.00
                         0.16127780           1.00000000
    P   1 1.00
                         1.10000000           1.00000000
    ****

  ==> DFT Potential <==

   => Composite Functional: B3LYP <= 

    B3LYP Hyb-GGA Exchange-Correlation Functional

    P. J. Stephens, F. J. Devlin, C. F. Chabalowski, and M. J. Frisch, J. Phys. Chem. 98, 11623 (1994)

    Deriv               =              1
    GGA                 =           TRUE
    Meta                =          FALSE

    Exchange Hybrid     =           TRUE
    MP2 Hybrid          =          FALSE

   => Exchange Functionals <=

    0.0800   Slater exchange
    0.7200         Becke 88

   => Exact (HF) Exchange <=

    0.2000               HF 

   => Correlation Functionals <=

    0.1900   Vosko, Wilk & Nusair (VWN5_RPA)
    0.8100   Lee, Yang & Parr

   => XC_HYB_GGA_XC_B3LYP Functional <=

    B3LYP
    P. J. Stephens, F. J. Devlin, C. F. Chabalowski, and M. J. Frisch, J. Phys. Chem. 98, 11623 (1994)
    GGA   =           TRUE
    Meta  =          FALSE
    LRC   =          FALSE
    Alpha =   1.000000E+00
    Omega =   0.000000E+00

    > Parameters <


   => Molecular Quadrature <=

    Radial Scheme          =       TREUTLER
    Pruning Scheme         =           FLAT
    Nuclear Scheme         =       TREUTLER

    BS radius alpha        =              1
    Pruning alpha          =              1
    Radial Points          =             75
    Spherical Points       =            302
    Total Points           =         131716
    Total Blocks           =           1076
    Max Points             =            256
    Max Functions          =             50

   => Loading Basis Set <=

    Name: (6-31G(D_P) AUX)
    Role: JKFIT
    Keyword: DF_BASIS_SCF
    atoms 1-2 entry C          line   121 file /Users/blais.ch/anaconda3/envs/rmg_env/share/psi4/basis/cc-pvdz-jkfit.gbs 
    atoms 3-6 entry H          line    51 file /Users/blais.ch/anaconda3/envs/rmg_env/share/psi4/basis/cc-pvdz-jkfit.gbs 

  Starting with a DF guess...

  ==> Pre-Iterations <==

   -------------------------------------------------------
    Irrep   Nso     Nmo     Nalpha   Nbeta   Ndocc  Nsocc
   -------------------------------------------------------
     A         50      50       0       0       0       0
   -------------------------------------------------------
    Total      50      50       8       8       8       0
   -------------------------------------------------------

  ==> Integral Setup <==

  DFHelper Memory: AOs need 0.006 GiB; user supplied 0.542 GiB. Using in-core AOs.

  ==> MemDFJK: Density-Fitted J/K Matrices <==

    J tasked:                   Yes
    K tasked:                   Yes
    wK tasked:                   No
    OpenMP threads:               1
    Memory [MiB]:               555
    Algorithm:                 Core
    Schwarz Cutoff:           1E-12
    Mask sparsity (%):       0.0000
    Fitting Condition:        1E-10

   => Auxiliary Basis Set <=

  -AO BASIS SET INFORMATION:
    Name                   = (6-31G(D_P) AUX)
    Blend                  = CC-PVDZ-JKFIT
    Total number of shells = 84
    Number of primitives   = 84
    Number of AO           = 262
    Number of SO           = 262
    Maximum AM             = 3
    Spherical Harmonics    = FALSE

  -Contraction Scheme:
    Atom   Type   All Primitives // Shells:
   ------ ------ --------------------------
       1     C     10s 7p 5d 2f // 10s 7p 5d 2f 
       2     C     10s 7p 5d 2f // 10s 7p 5d 2f 
       3     H     4s 3p 2d // 4s 3p 2d 
       4     H     4s 3p 2d // 4s 3p 2d 
       5     H     4s 3p 2d // 4s 3p 2d 
       6     H     4s 3p 2d // 4s 3p 2d 

  ==> AO Basis Functions <==

    [ (6-31G(D_P) AUX) ]
    cartesian
    ****
    C   1
    S   1 1.00
                      1113.98677190           1.00000000
    S   1 1.00
                       369.16234180           1.00000000
    S   1 1.00
                       121.79275232           1.00000000
    S   1 1.00
                        48.12711454           1.00000000
    S   1 1.00
                        20.36507400           1.00000000
    S   1 1.00
                         8.08835969           1.00000000
    S   1 1.00
                         2.50686566           1.00000000
    S   1 1.00
                         1.24385374           1.00000000
    S   1 1.00
                         0.48449900           1.00000000
    S   1 1.00
                         0.19185160           1.00000000
    P   1 1.00
                       102.99176249           1.00000000
    P   1 1.00
                        28.13259401           1.00000000
    P   1 1.00
                         9.83643182           1.00000000
    P   1 1.00
                         3.34905450           1.00000000
    P   1 1.00
                         1.49476186           1.00000000
    P   1 1.00
                         0.57690109           1.00000000
    P   1 1.00
                         0.20320063           1.00000000
    D   1 1.00
                        10.59406836           1.00000000
    D   1 1.00
                         3.59971954           1.00000000
    D   1 1.00
                         1.33556911           1.00000000
    D   1 1.00
                         0.51949765           1.00000000
    D   1 1.00
                         0.19954125           1.00000000
    F   1 1.00
                         1.19486634           1.00000000
    F   1 1.00
                         0.41586634           1.00000000
    ****
    C   2
    S   1 1.00
                      1113.98677190           1.00000000
    S   1 1.00
                       369.16234180           1.00000000
    S   1 1.00
                       121.79275232           1.00000000
    S   1 1.00
                        48.12711454           1.00000000
    S   1 1.00
                        20.36507400           1.00000000
    S   1 1.00
                         8.08835969           1.00000000
    S   1 1.00
                         2.50686566           1.00000000
    S   1 1.00
                         1.24385374           1.00000000
    S   1 1.00
                         0.48449900           1.00000000
    S   1 1.00
                         0.19185160           1.00000000
    P   1 1.00
                       102.99176249           1.00000000
    P   1 1.00
                        28.13259401           1.00000000
    P   1 1.00
                         9.83643182           1.00000000
    P   1 1.00
                         3.34905450           1.00000000
    P   1 1.00
                         1.49476186           1.00000000
    P   1 1.00
                         0.57690109           1.00000000
    P   1 1.00
                         0.20320063           1.00000000
    D   1 1.00
                        10.59406836           1.00000000
    D   1 1.00
                         3.59971954           1.00000000
    D   1 1.00
                         1.33556911           1.00000000
    D   1 1.00
                         0.51949765           1.00000000
    D   1 1.00
                         0.19954125           1.00000000
    F   1 1.00
                         1.19486634           1.00000000
    F   1 1.00
                         0.41586634           1.00000000
    ****
    H   3
    S   1 1.00
                         9.53024933           1.00000000
    S   1 1.00
                         1.91745062           1.00000000
    S   1 1.00
                         0.68424049           1.00000000
    S   1 1.00
                         0.28413256           1.00000000
    P   1 1.00
                         2.91332320           1.00000000
    P   1 1.00
                         1.26212054           1.00000000
    P   1 1.00
                         0.50199776           1.00000000
    D   1 1.00
                         2.31353291           1.00000000
    D   1 1.00
                         0.71290724           1.00000000
    ****
    H   4
    S   1 1.00
                         9.53024933           1.00000000
    S   1 1.00
                         1.91745062           1.00000000
    S   1 1.00
                         0.68424049           1.00000000
    S   1 1.00
                         0.28413256           1.00000000
    P   1 1.00
                         2.91332320           1.00000000
    P   1 1.00
                         1.26212054           1.00000000
    P   1 1.00
                         0.50199776           1.00000000
    D   1 1.00
                         2.31353291           1.00000000
    D   1 1.00
                         0.71290724           1.00000000
    ****
    H   5
    S   1 1.00
                         9.53024933           1.00000000
    S   1 1.00
                         1.91745062           1.00000000
    S   1 1.00
                         0.68424049           1.00000000
    S   1 1.00
                         0.28413256           1.00000000
    P   1 1.00
                         2.91332320           1.00000000
    P   1 1.00
                         1.26212054           1.00000000
    P   1 1.00
                         0.50199776           1.00000000
    D   1 1.00
                         2.31353291           1.00000000
    D   1 1.00
                         0.71290724           1.00000000
    ****
    H   6
    S   1 1.00
                         9.53024933           1.00000000
    S   1 1.00
                         1.91745062           1.00000000
    S   1 1.00
                         0.68424049           1.00000000
    S   1 1.00
                         0.28413256           1.00000000
    P   1 1.00
                         2.91332320           1.00000000
    P   1 1.00
                         1.26212054           1.00000000
    P   1 1.00
                         0.50199776           1.00000000
    D   1 1.00
                         2.31353291           1.00000000
    D   1 1.00
                         0.71290724           1.00000000
    ****

  Cached 100.0% of DFT collocation blocks in 0.173 [GiB].

  Minimum eigenvalue in the overlap matrix is 6.3408077068E-03.
  Using Symmetric Orthogonalization.

  SCF Guess: Superposition of Atomic Densities via on-the-fly atomic UHF.

DIIS coefficients:  1.000 
DIIS coefficients:  0.194  0.806 
DIIS coefficients:  -0.009  0.082  0.927 
DIIS coefficients:  0.000  -0.007  -0.078  1.084 
DIIS coefficients:  -0.000  0.001  0.012  -0.165  1.153 
DIIS coefficients:  1.000 
DIIS coefficients:  -0.068  1.068 
DIIS coefficients:  -0.000  -0.002  1.002 
DIIS coefficients:  -0.000  -0.000  -0.001  1.001 
  ==> Iterations <==

                           Total Energy        Delta E     RMS |[F,P]|

   @DF-RKS iter SAD:   -78.10436492352331   -7.81044e+01   0.00000e+00 
DIIS coefficients:  1.000 
    Occupation by irrep:
              A 
    DOCC [     8 ]

   @DF-RKS iter   1:   -78.40361805939506   -2.99253e-01   1.16553e-02 DIIS
DIIS coefficients:  0.509  0.491 
    Occupation by irrep:
              A 
    DOCC [     8 ]

   @DF-RKS iter   2:   -78.39016936552721    1.34487e-02   1.20847e-02 DIIS
DIIS coefficients:  0.005  0.010  0.984 
    Occupation by irrep:
              A 
    DOCC [     8 ]

   @DF-RKS iter   3:   -78.59233980496741   -2.02170e-01   1.39961e-04 DIIS
DIIS coefficients:  -0.000  -0.001  0.147  0.854 
    Occupation by irrep:
              A 
    DOCC [     8 ]

   @DF-RKS iter   4:   -78.59236464036266   -2.48354e-05   3.30144e-05 DIIS
DIIS coefficients:  0.000  -0.000  -0.003  0.105  0.898 
    Occupation by irrep:
              A 
    DOCC [     8 ]

   @DF-RKS iter   5:   -78.59236586417276   -1.22381e-06   4.93278e-06 DIIS
DIIS coefficients:  -0.000  -0.000  -0.000  -0.003  0.008  0.995 
    Occupation by irrep:
              A 
    DOCC [     8 ]

   @DF-RKS iter   6:   -78.59236589684866   -3.26759e-08   1.75491e-07 DIIS
DIIS coefficients:  -0.000  -0.000  -0.000  -0.001  0.000  0.292  0.709 
    Occupation by irrep:
              A 
    DOCC [     8 ]

   @DF-RKS iter   7:   -78.59236589689604   -4.73790e-11   5.62048e-08 DIIS
DIIS coefficients:  -0.000  -0.000  0.000  -0.000  -0.002  -0.013  0.498  0.516 
    Occupation by irrep:
              A 
    DOCC [     8 ]

   @DF-RKS iter   8:   -78.59236589689641   -3.69482e-13   5.38647e-08 DIIS
DIIS coefficients:  -0.000  0.000  0.000  -0.000  -0.000  -0.012  0.144  0.170  0.699 
    Occupation by irrep:
              A 
    DOCC [     8 ]

   @DF-RKS iter   9:   -78.59236589690025   -3.83693e-12   3.42548e-09 DIIS

  DF guess converged.

  ==> DirectJK: Integral-Direct J/K Matrices <==

    J tasked:                  Yes
    K tasked:                  Yes
    wK tasked:                  No
    Integrals threads:           1
    Schwarz Cutoff:          1E-12

DIIS coefficients:  1.000 
    Occupation by irrep:
              A 
    DOCC [     8 ]

   @RKS iter  10:   -78.59236483140889   -7.85924e+01   3.03727e-06 DIIS
DIIS coefficients:  -0.039  1.039 
    Occupation by irrep:
              A 
    DOCC [     8 ]

   @RKS iter  11:   -78.59236484049428   -9.08540e-09   2.18306e-07 DIIS
DIIS coefficients:  -0.016  0.386  0.630 
    Occupation by irrep:
              A 
    DOCC [     8 ]

   @RKS iter  12:   -78.59236484052958   -3.52998e-11   1.14417e-07 DIIS
DIIS coefficients:  -0.005  0.093  0.258  0.654 
    Occupation by irrep:
              A 
    DOCC [     8 ]

   @RKS iter  13:   -78.59236484054459   -1.50067e-11   2.89476e-08 DIIS
DIIS coefficients:  0.000  -0.006  0.003  0.067  0.936 
    Occupation by irrep:
              A 
    DOCC [     8 ]

   @RKS iter  14:   -78.59236484054561   -1.02318e-12   1.83016e-09 DIIS
  Energy and wave function converged.


  ==> Post-Iterations <==

    Orbital Energies [Eh]
    ---------------------

    Doubly Occupied:                                                      

       1A    -10.178813     2A    -10.177768     3A     -0.761570  
       4A     -0.572070     5A     -0.473468     6A     -0.410486  
       7A     -0.353772     8A     -0.270433  

    Virtual:                                                              

       9A      0.022906    10A      0.118982    11A      0.143439  
      12A      0.164705    13A      0.247172    14A      0.330724  
      15A      0.466076    16A      0.545846    17A      0.580462  
      18A      0.641178    19A      0.647455    20A      0.719713  
      21A      0.829233    22A      0.851616    23A      0.914483  
      24A      0.921920    25A      1.114311    26A      1.245446  
      27A      1.375448    28A      1.404599    29A      1.526934  
      30A      1.842219    31A      1.881566    32A      1.988803  
      33A      1.995133    34A      2.060806    35A      2.154757  
      36A      2.249148    37A      2.357246    38A      2.465854  
      39A      2.527291    40A      2.608022    41A      2.715843  
      42A      2.729015    43A      2.750417    44A      2.988333  
      45A      3.204414    46A      3.351810    47A      3.535167  
      48A      3.761487    49A      4.181064    50A      4.520292  

    Final Occupation by Irrep:
              A 
    DOCC [     8 ]

  @RKS Final Energy:   -78.59236484054561

   => Energetics <=

    Nuclear Repulsion Energy =             33.7856820101245816
    One-Electron Energy =                -171.1835617364391737
    Two-Electron Energy =                  68.7782116795197993
    DFT Exchange-Correlation Energy =      -9.9726967937508313
    Empirical Dispersion Energy =           0.0000000000000000
    VV10 Nonlocal Energy =                  0.0000000000000000
    Total Energy =                        -78.5923648405456134

Computation Completed


Properties will be evaluated at   0.000000,   0.000000,   0.000000 [a0]

Properties computed using the SCF density matrix

  Nuclear Dipole Moment: [e a0]
     X:     0.0000      Y:     0.0000      Z:     0.0036

  Electronic Dipole Moment: [e a0]
     X:    -0.0000      Y:     0.0000      Z:    -0.0025

  Dipole Moment: [e a0]
     X:    -0.0000      Y:     0.0000      Z:     0.0011     Total:     0.0011

  Dipole Moment: [D]
     X:    -0.0000      Y:     0.0000      Z:     0.0029     Total:     0.0029


*** tstop() called on FACC02D75Y4MD6T.tld at Mon Sep 21 09:43:54 2020
Module time:
	user time   =       3.42 seconds =       0.06 minutes
	system time =       0.13 seconds =       0.00 minutes
	total time  =          3 seconds =       0.05 minutes
Total time:
	user time   =       3.42 seconds =       0.06 minutes
	system time =       0.13 seconds =       0.00 minutes
	total time  =          3 seconds =       0.05 minutes

*** tstart() called on FACC02D75Y4MD6T.tld
*** at Mon Sep 21 09:43:54 2020


         ------------------------------------------------------------
                                   SCF GRAD                          
                          Rob Parrish, Justin Turney,                
                       Andy Simmonett, and Alex Sokolov              
         ------------------------------------------------------------

  ==> Geometry <==

    Molecular point group: c1
    Full point group: C1

    Geometry (in Angstrom), charge = 0, multiplicity = 1:

       Center              X                  Y                   Z               Mass       
    ------------   -----------------  -----------------  -----------------  -----------------
         C            0.655000000000     0.000000000000    -0.000411791020    12.000000000000
         C           -0.655000000000     0.000000000000     0.000088208980    12.000000000000
         H           -1.195000000000    -0.935300000000    -0.000911791020     1.007825032230
         H           -1.195000000000     0.935300000000     0.001388208980     1.007825032230
         H            1.195000000000     0.935300000000     0.000588208980     1.007825032230
         H            1.195000000000    -0.935300000000     0.002788208980     1.007825032230

           C
              BASIS           6-31G(D_P)           a2828f8bd65c52d276d3a5c7992328305af36e8a
              DF_BASIS_SCF    (6-31G(D_P) AUX)     130a2f96e8083cf241f9163199d111676f18ec06
           C
              BASIS           6-31G(D_P)           a2828f8bd65c52d276d3a5c7992328305af36e8a
              DF_BASIS_SCF    (6-31G(D_P) AUX)     130a2f96e8083cf241f9163199d111676f18ec06
           H
              BASIS           6-31G(D_P)           902186d0f3205710946c2c15d2c68458d6f6cc2a
              DF_BASIS_SCF    (6-31G(D_P) AUX)     1164366b470d7a66fddaf681ef9d1c28421b3e4a
           H
              BASIS           6-31G(D_P)           902186d0f3205710946c2c15d2c68458d6f6cc2a
              DF_BASIS_SCF    (6-31G(D_P) AUX)     1164366b470d7a66fddaf681ef9d1c28421b3e4a
           H
              BASIS           6-31G(D_P)           902186d0f3205710946c2c15d2c68458d6f6cc2a
              DF_BASIS_SCF    (6-31G(D_P) AUX)     1164366b470d7a66fddaf681ef9d1c28421b3e4a
           H
              BASIS           6-31G(D_P)           902186d0f3205710946c2c15d2c68458d6f6cc2a
              DF_BASIS_SCF    (6-31G(D_P) AUX)     1164366b470d7a66fddaf681ef9d1c28421b3e4a

  Nuclear repulsion =   33.785682010124582

  ==> Basis Set <==

  -AO BASIS SET INFORMATION:
    Name                   = 6-31G(D_P)
    Blend                  = 6-31G(D_P)
    Total number of shells = 24
    Number of primitives   = 50
    Number of AO           = 50
    Number of SO           = 50
    Maximum AM             = 2
    Spherical Harmonics    = FALSE

  -Contraction Scheme:
    Atom   Type   All Primitives // Shells:
   ------ ------ --------------------------
       1     C     10s 4p 1d // 3s 2p 1d 
       2     C     10s 4p 1d // 3s 2p 1d 
       3     H     4s 1p // 2s 1p 
       4     H     4s 1p // 2s 1p 
       5     H     4s 1p // 2s 1p 
       6     H     4s 1p // 2s 1p 

  ==> AO Basis Functions <==

    [ 6-31G(D_P) ]
    cartesian
    ****
    C   1
    S   6 1.00
                      3047.52490000           0.00183470
                       457.36951000           0.01403730
                       103.94869000           0.06884260
                        29.21015500           0.23218440
                         9.28666300           0.46794130
                         3.16392700           0.36231200
    S   3 1.00
                         7.86827240          -0.11933240
                         1.88128850          -0.16085420
                         0.54424930           1.14345640
    P   3 1.00
                         7.86827240           0.06899910
                         1.88128850           0.31642400
                         0.54424930           0.74430830
    S   1 1.00
                         0.16871440           1.00000000
    P   1 1.00
                         0.16871440           1.00000000
    D   1 1.00
                         0.80000000           1.00000000
    ****
    C   2
    S   6 1.00
                      3047.52490000           0.00183470
                       457.36951000           0.01403730
                       103.94869000           0.06884260
                        29.21015500           0.23218440
                         9.28666300           0.46794130
                         3.16392700           0.36231200
    S   3 1.00
                         7.86827240          -0.11933240
                         1.88128850          -0.16085420
                         0.54424930           1.14345640
    P   3 1.00
                         7.86827240           0.06899910
                         1.88128850           0.31642400
                         0.54424930           0.74430830
    S   1 1.00
                         0.16871440           1.00000000
    P   1 1.00
                         0.16871440           1.00000000
    D   1 1.00
                         0.80000000           1.00000000
    ****
    H   3
    S   3 1.00
                        18.73113700           0.03349460
                         2.82539370           0.23472695
                         0.64012170           0.81375733
    S   1 1.00
                         0.16127780           1.00000000
    P   1 1.00
                         1.10000000           1.00000000
    ****
    H   4
    S   3 1.00
                        18.73113700           0.03349460
                         2.82539370           0.23472695
                         0.64012170           0.81375733
    S   1 1.00
                         0.16127780           1.00000000
    P   1 1.00
                         1.10000000           1.00000000
    ****
    H   5
    S   3 1.00
                        18.73113700           0.03349460
                         2.82539370           0.23472695
                         0.64012170           0.81375733
    S   1 1.00
                         0.16127780           1.00000000
    P   1 1.00
                         1.10000000           1.00000000
    ****
    H   6
    S   3 1.00
                        18.73113700           0.03349460
                         2.82539370           0.23472695
                         0.64012170           0.81375733
    S   1 1.00
                         0.16127780           1.00000000
    P   1 1.00
                         1.10000000           1.00000000
    ****

  ==> DirectJKGrad: Integral-Direct SCF Gradients <==

    Gradient:                    1
    J tasked:                  Yes
    K tasked:                  Yes
    wK tasked:                  No
    Integrals threads:           1
    Schwarz Cutoff:          0E+00

  ==> DFT Potential <==

   => Composite Functional: B3LYP <= 

    B3LYP Hyb-GGA Exchange-Correlation Functional

    P. J. Stephens, F. J. Devlin, C. F. Chabalowski, and M. J. Frisch, J. Phys. Chem. 98, 11623 (1994)

    Deriv               =              1
    GGA                 =           TRUE
    Meta                =          FALSE

    Exchange Hybrid     =           TRUE
    MP2 Hybrid          =          FALSE

   => Exchange Functionals <=

    0.0800   Slater exchange
    0.7200         Becke 88

   => Exact (HF) Exchange <=

    0.2000               HF 

   => Correlation Functionals <=

    0.1900   Vosko, Wilk & Nusair (VWN5_RPA)
    0.8100   Lee, Yang & Parr

   => XC_HYB_GGA_XC_B3LYP Functional <=

    B3LYP
    P. J. Stephens, F. J. Devlin, C. F. Chabalowski, and M. J. Frisch, J. Phys. Chem. 98, 11623 (1994)
    GGA   =           TRUE
    Meta  =          FALSE
    LRC   =          FALSE
    Alpha =   1.000000E+00
    Omega =   0.000000E+00

    > Parameters <


   => Molecular Quadrature <=

    Radial Scheme          =       TREUTLER
    Pruning Scheme         =           FLAT
    Nuclear Scheme         =       TREUTLER

    BS radius alpha        =              1
    Pruning alpha          =              1
    Radial Points          =             75
    Spherical Points       =            302
    Total Points           =         131716
    Total Blocks           =           1076
    Max Points             =            256
    Max Functions          =             50


  -Nuclear Gradient:
     Atom            X                  Y                   Z
    ------   -----------------  -----------------  -----------------
       1       -5.131741699946     0.000014639589     0.008089214269
       2        5.131733287258    -0.000000673482    -0.001238445607
       3        1.142139780212     1.522670171072     0.001617417864
       4        1.142138946058    -1.522668880870    -0.002174213291
       5       -1.142139948213    -1.522670186509    -0.001332596153
       6       -1.142130365370     1.522654930201    -0.004961377081


  -Core Hamiltonian Gradient:
     Atom            X                  Y                   Z
    ------   -----------------  -----------------  -----------------
       1       12.095510542708    -0.000029239520    -0.028765028736
       2      -12.095497544395     0.000001503178     0.006258358628
       3       -2.662693109857    -3.958347768213    -0.005389440983
       4       -2.662690864866     3.958344172753     0.007443462684
       5        2.662696472341     3.958343898459     0.004021532160
       6        2.662674504068    -3.958312566658     0.016431116247


  -Overlap Gradient:
     Atom            X                  Y                   Z
    ------   -----------------  -----------------  -----------------
       1       -0.148978379390     0.000001433005     0.001079553594
       2        0.148977829881    -0.000000289494    -0.000212969327
       3        0.070542484303     0.135521452926     0.000174194393
       4        0.070542438630    -0.135521342920    -0.000236396885
       5       -0.070542502798    -0.135521285834    -0.000204142102
       6       -0.070541870626     0.135520032316    -0.000600239674


  -Coulomb Gradient:
     Atom            X                  Y                   Z
    ------   -----------------  -----------------  -----------------
       1       -7.084144565881     0.000017339738     0.021125984691
       2        7.084138413865    -0.000000918413    -0.005079550873
       3        1.582368191400     2.534278007506     0.003870661475
       4        1.582366619034    -2.534275422037    -0.005404577554
       5       -1.582371480907    -2.534274102342    -0.002754149862
       6       -1.582357177513     2.534255095548    -0.011758367876


  -Exchange Gradient:
     Atom            X                  Y                   Z
    ------   -----------------  -----------------  -----------------
       1        0.063166365464    -0.000000497055    -0.000468355211
       2       -0.063166199902     0.000000056991     0.000087694995
       3       -0.030633041472    -0.057720657694    -0.000088418958
       4       -0.030633007048     0.057720596992     0.000120355896
       5        0.030633103798     0.057720585047     0.000073060695
       6        0.030632779160    -0.057720084283     0.000275662582


  -XC Gradient:
     Atom            X                  Y                   Z
    ------   -----------------  -----------------  -----------------
       1        0.189839337934    -0.000001547409    -0.001362431494
       2       -0.189838770839     0.000000139586     0.000244712494
       3       -0.094478548300    -0.175544343716    -0.000262985518
       4       -0.094478438179     0.175544154362     0.000357028896
       5        0.094478738029     0.175544116672     0.000211195360
       6        0.094477677910    -0.175542522727     0.000812435696


  -Total Gradient:
     Atom            X                  Y                   Z
    ------   -----------------  -----------------  -----------------
       1       -0.016348399111     0.000002128349    -0.000301062888
       2        0.016347015868    -0.000000181633     0.000059800310
       3        0.007245756286     0.000856861881    -0.000078571726
       4        0.007245693629    -0.000856721719     0.000105659746
       5       -0.007245617749    -0.000856974507     0.000014900098
       6       -0.007244452370     0.000854884397     0.000199229894


*** tstop() called on FACC02D75Y4MD6T.tld at Mon Sep 21 09:43:55 2020
Module time:
	user time   =       0.76 seconds =       0.01 minutes
	system time =       0.01 seconds =       0.00 minutes
	total time  =          1 seconds =       0.02 minutes
Total time:
	user time   =       4.18 seconds =       0.07 minutes
	system time =       0.14 seconds =       0.00 minutes
	total time  =          4 seconds =       0.07 minutes

			-----------------------------------------
			 OPTKING 2.0: for geometry optimizations 
			  - R.A. King,  Bethel University        
			-----------------------------------------
dynamic level          =                  0
conv_max_force         =           3.00e-04
conv_rms_force         =           0.00e+00
conv_max_DE            =           1.00e-06
conv_max_disp          =           1.20e-03
conv_rms_disp          =           0.00e+00
SD Hessian             =           1.00e+00
scale_connectivity     =           1.30e+00
interfragment_scale_connectivity =           1.80e+00
fragment_mode          =             single
interfragment_mode        =              fixed
intcos_generate_exit   =              false
print_params           =              false
print_lvl              = 3
ensure_bt_convergence =             false
rfo_follow_root        =              false
rfo_root               =                  0
rfo_normalization_max  =           1.00e+02
rsrfo_alpha_max        =          1.000e+08
step_type              =                RFO
opt. coordinates       = Redundant Internals
linesearch_static_N    =                  8
linesearch_static_min  =          1.000e-03
linesearch_static_max  =          1.000e-01
consecutive_backsteps  =                  0
intrafragment_H        =           Schlegel
interfragment_H        =            Default
H_update               =               BFGS
H_update_use_last      =                  2
freeze_intrafragment   =              false
intrafragment_step_limit=          5.00e-01
interfragment_step_limit=          5.00e-01
add_auxiliary_bonds   =               true
H_guess_every         =              false
auxiliary_bond_factor =          2.50e+00
H_update_limit         =               true
H_update_limit_scale   =           5.00e-01
H_update_limit_max     =           1.00e+00
H_update_den_tol       =           1.00e-07
interfragment_distance_inverse=       false
write_final_step_geometry=            false
maximum_H_bond_distance=           4.30e+00
read_cartesian_H       =              false
fb_fragments          =              false
fb_fragments_only     =              false
frozen_distance: 
frozen_bend: 
frozen_dihedral: 
frozen_cartesian: 
fixed_distance: 
fixed_bend: 
fixed_dihedral: 
print_trajectory_xyz_file =              false

	Internal coordinates to be generated automatically.
	Detected frag 1 with atoms:  1 2 3 4 5 6
	---Fragment 1 Bond Connectivity---
	 1 : 2 5 6
	 2 : 1 3 4
	 3 : 2
	 4 : 2
	 5 : 1
	 6 : 1

	---Fragment 1 Geometry and Gradient---
	 C           1.2377706122        0.0000000000       -0.0007781722
	 C          -1.2377706122        0.0000000000        0.0001666908
	 H          -2.2582227199       -1.7674608451       -0.0017230353
	 H          -2.2582227199        1.7674608451        0.0026233348
	 H           2.2582227199        1.7674608451        0.0011115539
	 H           2.2582227199       -1.7674608451        0.0052689514
	            -0.0163483991        0.0000021283       -0.0003010629
	             0.0163470159       -0.0000001816        0.0000598003
	             0.0072457563        0.0008568619       -0.0000785717
	             0.0072456936       -0.0008567217        0.0001056597
	            -0.0072456177       -0.0008569745        0.0000149001
	            -0.0072444524        0.0008548844        0.0001992299

	Previous optimization step data not found.  Starting new optimization.

	---Fragment 1 Intrafragment Coordinates---
	 - Coordinate -           - BOHR/RAD -       - ANG/DEG -
	 R(1,2)           =         2.475541	       1.310000
	 R(1,5)           =         2.040893	       1.079994
	 R(1,6)           =         2.040901	       1.079998
	 R(2,3)           =         2.040893	       1.079994
	 R(2,4)           =         2.040894	       1.079994
	 B(1,2,3)         =         2.094398	     120.000157
	 B(1,2,4)         =         2.094399	     120.000201
	 B(2,1,5)         =         2.094398	     120.000157
	 B(2,1,6)         =         2.094395	     119.999975
	 B(3,2,4)         =         2.094389	     119.999641
	 B(5,1,6)         =         2.094382	     119.999265
	 D(3,2,1,5)       =         3.141593	     180.000000
	 D(3,2,1,6)       =        -0.004931	      -0.282540
	 D(4,2,1,5)       =         0.000120	       0.006874
	 D(4,2,1,6)       =         3.136781	     179.724334

	Current energy   :       -78.5923648405

B matrix
  1.000000  0.000000 -0.000382 -1.000000  0.000000  0.000382  0.000000  0.000000
  0.000000  0.000000  0.000000  0.000000  0.000000  0.000000  0.000000  0.000000
  0.000000  0.000000
 -0.500003 -0.866023 -0.000926  0.000000  0.000000  0.000000  0.000000  0.000000
  0.000000  0.000000  0.000000  0.000000  0.500003  0.866023  0.000926  0.000000
  0.000000  0.000000
 -0.500001  0.866020 -0.002963  0.000000  0.000000  0.000000  0.000000  0.000000
  0.000000  0.000000  0.000000  0.000000  0.000000  0.000000  0.000000  0.500001
 -0.866020  0.002963
  0.000000  0.000000  0.000000  0.500003  0.866023  0.000926 -0.500003 -0.866023
 -0.000926  0.000000  0.000000  0.000000  0.000000  0.000000  0.000000  0.000000
  0.000000  0.000000
  0.000000  0.000000  0.000000  0.500003 -0.866023 -0.001204  0.000000  0.000000
  0.000000 -0.500003  0.866023  0.001204  0.000000  0.000000  0.000000  0.000000
  0.000000  0.000000
  0.000000  0.403952  0.000521  0.424335 -0.648943 -0.000999 -0.424336  0.244992
  0.000478  0.000000  0.000000  0.000000  0.000000  0.000000  0.000000  0.000000
  0.000000  0.000000
 -0.000000 -0.403952 -0.000472  0.424336  0.648944  0.000597  0.000000  0.000000
  0.000000 -0.424336 -0.244992 -0.000125  0.000000  0.000000  0.000000  0.000000
  0.000000  0.000000
 -0.424335  0.648943  0.000999 -0.000000 -0.403952 -0.000521  0.000000  0.000000
  0.000000  0.000000  0.000000  0.000000  0.424336 -0.244992 -0.000478  0.000000
  0.000000  0.000000
 -0.424334 -0.648937  0.002525 -0.000001  0.403949 -0.001471  0.000000  0.000000
  0.000000  0.000000  0.000000  0.000000  0.000000  0.000000  0.000000  0.424335
  0.244988 -0.001054
  0.000000  0.000000  0.000000 -0.848671 -0.000000  0.000236  0.424336 -0.244992
 -0.000419  0.424336  0.244992  0.000183  0.000000  0.000000  0.000000  0.000000
  0.000000  0.000000
  0.848662  0.000002  0.003300  0.000000  0.000000  0.000000  0.000000  0.000000
  0.000000  0.000000  0.000000  0.000000 -0.424331  0.244992 -0.001938 -0.424330
 -0.244994 -0.001362
 -0.000216  0.000730 -0.565782 -0.000216  0.000730 -0.565782  0.000216 -0.000730
  0.565782  0.000000  0.000000  0.000000  0.000216 -0.000730  0.565782  0.000000
  0.000000  0.000000
  0.000394  0.002609  1.032219 -0.000394  0.000181 -1.032226  0.000216 -0.000730
  0.565782  0.000000  0.000000  0.000000  0.000000  0.000000  0.000000 -0.000216
 -0.002060 -0.565776
 -0.000394  0.001303 -1.032229  0.000394 -0.001235  1.032229  0.000000  0.000000
  0.000000 -0.000216  0.000662 -0.565783  0.000216 -0.000730  0.565782  0.000000
  0.000000  0.000000
  0.000216  0.003182  0.565772  0.000216 -0.001784  0.565786  0.000000  0.000000
  0.000000 -0.000216  0.000662 -0.565783  0.000000  0.000000  0.000000 -0.000216
 -0.002060 -0.565776
Internal forces in au
   0.030838432093307   0.004364974064151   0.004361988807311   0.004364888363565
   0.004364679383809   0.003977477768131   0.003977411053068   0.003977344851998
   0.003978334003571  -0.007954891664587  -0.007954633803863  -0.000042653200187
   0.000179408899067  -0.000014736000379   0.000207326098875
	Generating empirical Hessian (Schlegel '84) for each fragment.
diagonal Hessian values for simple coordinates.
  0.644907  0.359950  0.359945  0.359950  0.359950  0.160000  0.160000  0.160000
  0.160000  0.160000  0.160000  0.030079  0.030079  0.030079  0.030079

Initial Hessian guess
  0.644907  0.000000  0.000000  0.000000  0.000000  0.000000  0.000000  0.000000
  0.000000  0.000000  0.000000  0.000000  0.000000  0.000000  0.000000
  0.000000  0.359950  0.000000  0.000000  0.000000  0.000000  0.000000  0.000000
  0.000000  0.000000  0.000000  0.000000  0.000000  0.000000  0.000000
  0.000000  0.000000  0.359945  0.000000  0.000000  0.000000  0.000000  0.000000
  0.000000  0.000000  0.000000  0.000000  0.000000  0.000000  0.000000
  0.000000  0.000000  0.000000  0.359950  0.000000  0.000000  0.000000  0.000000
  0.000000  0.000000  0.000000  0.000000  0.000000  0.000000  0.000000
  0.000000  0.000000  0.000000  0.000000  0.359950  0.000000  0.000000  0.000000
  0.000000  0.000000  0.000000  0.000000  0.000000  0.000000  0.000000
  0.000000  0.000000  0.000000  0.000000  0.000000  0.160000  0.000000  0.000000
  0.000000  0.000000  0.000000  0.000000  0.000000  0.000000  0.000000
  0.000000  0.000000  0.000000  0.000000  0.000000  0.000000  0.160000  0.000000
  0.000000  0.000000  0.000000  0.000000  0.000000  0.000000  0.000000
  0.000000  0.000000  0.000000  0.000000  0.000000  0.000000  0.000000  0.160000
  0.000000  0.000000  0.000000  0.000000  0.000000  0.000000  0.000000
  0.000000  0.000000  0.000000  0.000000  0.000000  0.000000  0.000000  0.000000
  0.160000  0.000000  0.000000  0.000000  0.000000  0.000000  0.000000
  0.000000  0.000000  0.000000  0.000000  0.000000  0.000000  0.000000  0.000000
  0.000000  0.160000  0.000000  0.000000  0.000000  0.000000  0.000000
  0.000000  0.000000  0.000000  0.000000  0.000000  0.000000  0.000000  0.000000
  0.000000  0.000000  0.160000  0.000000  0.000000  0.000000  0.000000
  0.000000  0.000000  0.000000  0.000000  0.000000  0.000000  0.000000  0.000000
  0.000000  0.000000  0.000000  0.030079  0.000000  0.000000  0.000000
  0.000000  0.000000  0.000000  0.000000  0.000000  0.000000  0.000000  0.000000
  0.000000  0.000000  0.000000  0.000000  0.030079  0.000000  0.000000
  0.000000  0.000000  0.000000  0.000000  0.000000  0.000000  0.000000  0.000000
  0.000000  0.000000  0.000000  0.000000  0.000000  0.030079  0.000000
  0.000000  0.000000  0.000000  0.000000  0.000000  0.000000  0.000000  0.000000
  0.000000  0.000000  0.000000  0.000000  0.000000  0.000000  0.030079
	Projection matrix for redundancies.
  1.000000 -0.000000  0.000000 -0.000000  0.000000  0.000000  0.000000 -0.000000
  0.000000  0.000000 -0.000000  0.000000 -0.000000  0.000000 -0.000000
  0.000000  1.000000  0.000000 -0.000000 -0.000000 -0.000000 -0.000000  0.000000
  0.000000  0.000000 -0.000000 -0.000000  0.000000 -0.000000 -0.000000
  0.000000  0.000000  1.000000 -0.000000 -0.000000  0.000000  0.000000 -0.000000
 -0.000000 -0.000000  0.000000  0.000000 -0.000000 -0.000000  0.000000
 -0.000000 -0.000000 -0.000000  1.000000  0.000000 -0.000000  0.000000  0.000000
 -0.000000 -0.000000 -0.000000  0.000000  0.000000  0.000000  0.000000
  0.000000 -0.000000  0.000000 -0.000000  1.000000 -0.000000  0.000000 -0.000000
 -0.000000 -0.000000  0.000000  0.000000  0.000000  0.000000  0.000000
 -0.000000 -0.000000  0.000000 -0.000000 -0.000000  0.666667 -0.333333  0.000000
 -0.000000 -0.333333  0.000000  0.000017  0.000017 -0.000017 -0.000017
  0.000000 -0.000000  0.000000  0.000000  0.000000 -0.333333  0.666667 -0.000000
  0.000000 -0.333333 -0.000000  0.000017  0.000017 -0.000017 -0.000017
  0.000000  0.000000 -0.000000  0.000000 -0.000000  0.000000 -0.000000  0.666671
 -0.333329  0.000000 -0.333333 -0.000712  0.000712 -0.000712  0.000712
  0.000000  0.000000  0.000000 -0.000000  0.000000 -0.000000  0.000000 -0.333329
  0.666671 -0.000000 -0.333333 -0.000712  0.000712 -0.000712  0.000712
 -0.000000  0.000000 -0.000000 -0.000000 -0.000000 -0.333333 -0.333333  0.000000
  0.000000  0.666667  0.000000  0.000017  0.000017 -0.000017 -0.000017
 -0.000000 -0.000000 -0.000000  0.000000 -0.000000  0.000000 -0.000000 -0.333333
 -0.333333 -0.000000  0.666663 -0.000712  0.000712 -0.000712  0.000712
  0.000000 -0.000000 -0.000000  0.000000 -0.000000  0.000017  0.000017 -0.000712
 -0.000712  0.000017 -0.000712  0.749998  0.250002  0.249998 -0.249998
  0.000000  0.000000 -0.000000 -0.000000  0.000000  0.000017  0.000017  0.000712
  0.000712  0.000017  0.000712  0.250002  0.749998 -0.249998  0.249998
 -0.000000 -0.000000 -0.000000  0.000000  0.000000 -0.000017 -0.000017 -0.000712
 -0.000712 -0.000017 -0.000712  0.249998 -0.249998  0.749998  0.250002
 -0.000000 -0.000000 -0.000000  0.000000  0.000000 -0.000017 -0.000017  0.000712
  0.000712 -0.000017  0.000712 -0.249998  0.249998  0.250002  0.749998
Constraint matrix
  0.000000  0.000000  0.000000  0.000000  0.000000  0.000000  0.000000  0.000000
  0.000000  0.000000  0.000000  0.000000  0.000000  0.000000  0.000000
  0.000000  0.000000  0.000000  0.000000  0.000000  0.000000  0.000000  0.000000
  0.000000  0.000000  0.000000  0.000000  0.000000  0.000000  0.000000
  0.000000  0.000000  0.000000  0.000000  0.000000  0.000000  0.000000  0.000000
  0.000000  0.000000  0.000000  0.000000  0.000000  0.000000  0.000000
  0.000000  0.000000  0.000000  0.000000  0.000000  0.000000  0.000000  0.000000
  0.000000  0.000000  0.000000  0.000000  0.000000  0.000000  0.000000
  0.000000  0.000000  0.000000  0.000000  0.000000  0.000000  0.000000  0.000000
  0.000000  0.000000  0.000000  0.000000  0.000000  0.000000  0.000000
  0.000000  0.000000  0.000000  0.000000  0.000000  0.000000  0.000000  0.000000
  0.000000  0.000000  0.000000  0.000000  0.000000  0.000000  0.000000
  0.000000  0.000000  0.000000  0.000000  0.000000  0.000000  0.000000  0.000000
  0.000000  0.000000  0.000000  0.000000  0.000000  0.000000  0.000000
  0.000000  0.000000  0.000000  0.000000  0.000000  0.000000  0.000000  0.000000
  0.000000  0.000000  0.000000  0.000000  0.000000  0.000000  0.000000
  0.000000  0.000000  0.000000  0.000000  0.000000  0.000000  0.000000  0.000000
  0.000000  0.000000  0.000000  0.000000  0.000000  0.000000  0.000000
  0.000000  0.000000  0.000000  0.000000  0.000000  0.000000  0.000000  0.000000
  0.000000  0.000000  0.000000  0.000000  0.000000  0.000000  0.000000
  0.000000  0.000000  0.000000  0.000000  0.000000  0.000000  0.000000  0.000000
  0.000000  0.000000  0.000000  0.000000  0.000000  0.000000  0.000000
  0.000000  0.000000  0.000000  0.000000  0.000000  0.000000  0.000000  0.000000
  0.000000  0.000000  0.000000  0.000000  0.000000  0.000000  0.000000
  0.000000  0.000000  0.000000  0.000000  0.000000  0.000000  0.000000  0.000000
  0.000000  0.000000  0.000000  0.000000  0.000000  0.000000  0.000000
  0.000000  0.000000  0.000000  0.000000  0.000000  0.000000  0.000000  0.000000
  0.000000  0.000000  0.000000  0.000000  0.000000  0.000000  0.000000
  0.000000  0.000000  0.000000  0.000000  0.000000  0.000000  0.000000  0.000000
  0.000000  0.000000  0.000000  0.000000  0.000000  0.000000  0.000000
	Internal forces in au, after projection of redundancies and constraints.
  0.030838  0.004365  0.004362  0.004365  0.004365  0.003977  0.003977  0.003977
  0.003978 -0.007955 -0.007955 -0.000043  0.000179 -0.000015  0.000207
Projected (PHP) Hessian matrix
  0.644907 -0.000000  0.000000 -0.000000  0.000000  0.000000  0.000000 -0.000000
  0.000000  0.000000 -0.000000  0.000000 -0.000000  0.000000 -0.000000
  0.000000  0.359950  0.000000 -0.000000 -0.000000 -0.000000 -0.000000 -0.000000
  0.000000  0.000000 -0.000000 -0.000000  0.000000 -0.000000 -0.000000
  0.000000  0.000000  0.359945 -0.000000 -0.000000  0.000000 -0.000000 -0.000000
 -0.000000 -0.000000  0.000000  0.000000 -0.000000 -0.000000  0.000000
 -0.000000 -0.000000 -0.000000  0.359950  0.000000 -0.000000  0.000000  0.000000
 -0.000000 -0.000000 -0.000000  0.000000  0.000000  0.000000  0.000000
  0.000000 -0.000000  0.000000 -0.000000  0.359950 -0.000000  0.000000 -0.000000
 -0.000000 -0.000000  0.000000  0.000000  0.000000  0.000000  0.000000
 -0.000000 -0.000000  0.000000 -0.000000 -0.000000  0.106667 -0.053333  0.000000
 -0.000000 -0.053333  0.000000  0.000001  0.000001 -0.000001 -0.000001
  0.000000 -0.000000  0.000000  0.000000  0.000000 -0.053333  0.106667 -0.000000
  0.000000 -0.053333 -0.000000  0.000001  0.000001 -0.000001 -0.000001
  0.000000  0.000000 -0.000000  0.000000 -0.000000  0.000000 -0.000000  0.106667
 -0.053333  0.000000 -0.053333 -0.000021  0.000021 -0.000021  0.000021
  0.000000  0.000000  0.000000 -0.000000  0.000000 -0.000000  0.000000 -0.053333
  0.106667 -0.000000 -0.053333 -0.000021  0.000021 -0.000021  0.000021
 -0.000000  0.000000 -0.000000 -0.000000 -0.000000 -0.053333 -0.053333 -0.000000
  0.000000  0.106667  0.000000  0.000001  0.000001 -0.000001 -0.000001
 -0.000000 -0.000000 -0.000000  0.000000 -0.000000  0.000000 -0.000000 -0.053333
 -0.053333  0.000000  0.106666 -0.000021  0.000021 -0.000021  0.000021
  0.000000 -0.000000 -0.000000  0.000000 -0.000000  0.000001  0.000001 -0.000021
 -0.000021  0.000001 -0.000021  0.022559  0.007520  0.007520 -0.007520
  0.000000  0.000000 -0.000000 -0.000000  0.000000  0.000001  0.000001  0.000021
  0.000021  0.000001  0.000021  0.007520  0.022559 -0.007520  0.007520
 -0.000000 -0.000000 -0.000000  0.000000  0.000000 -0.000001 -0.000001 -0.000021
 -0.000021 -0.000001 -0.000021  0.007520 -0.007520  0.022559  0.007520
 -0.000000 -0.000000 -0.000000  0.000000  0.000000 -0.000001 -0.000001  0.000021
  0.000021 -0.000001  0.000021 -0.007520  0.007520  0.007520  0.022559
	Taking RFO optimization step.
Eigenvalues of scaled RFO matrix.
 -0.002846  0.000000  0.000000  0.000000  0.030079  0.030079
  0.030082  0.160000  0.160000  0.160000  0.161161  0.359947
  0.359950  0.359950  0.360159  0.646380
First eigenvector (unnormalized) of scaled RFO matrix.
  0.047370  0.011971  0.011963  0.011971  0.011971  0.024303  0.024302  0.024309
  0.024315 -0.048605 -0.048596 -0.001289  0.005422 -0.000445  0.006265  0.995000
	Going to follow RFO solution 1.
	Using RFO vector 1.
	rfo_root is 1

Scaled RFO eigenvalue 1:   -0.0028462780 (or 2*-0.0014231390  )
eigenvector:
  0.047608  0.012031  0.012023  0.012031  0.012031  0.024425  0.024424  0.024432
  0.024438 -0.048849 -0.048840 -0.001295  0.005449 -0.000447  0.006297  1.000000

Projection of redundancies out of step:
	Original dq     Projected dq     Difference
	    0.047608        0.047608      -0.000000
	    0.012031        0.012031      -0.000000
	    0.012023        0.012023      -0.000000
	    0.012031        0.012031      -0.000000
	    0.012031        0.012031      -0.000000
	    0.024425        0.024425       0.000000
	    0.024424        0.024424       0.000000
	    0.024432        0.024432       0.000000
	    0.024438        0.024438       0.000000
	   -0.048849       -0.048849       0.000000
	   -0.048840       -0.048840       0.000000
	   -0.001295       -0.001295      -0.000000
	    0.005449        0.005449       0.000000
	   -0.000447       -0.000447       0.000000
	    0.006297        0.006297      -0.000000
dq:
  0.047608  0.012031  0.012023  0.012031  0.012031  0.024425  0.024424  0.024432
  0.024438 -0.048849 -0.048840 -0.001295  0.005449 -0.000447  0.006297
fq:
  0.030838  0.004365  0.004362  0.004365  0.004365  0.003977  0.003977  0.003977
  0.003978 -0.007955 -0.007955 -0.000043  0.000179 -0.000015  0.000207
	lambda calculated by (dq^t).(-f)     =        -0.0028462780
	Analytic derivative d(norm)/d(alpha) =        -0.0002886522
	Final scaled step dq:
  0.047608  0.012031  0.012023  0.012031  0.012031  0.024425  0.024424  0.024432
  0.024438 -0.048849 -0.048840 -0.001295  0.005449 -0.000447  0.006297
	Norm of target step-size    0.10038
	Projected energy change by RFO approximation:        -0.0049319184

	Back-transformation to cartesian coordinates...
	 In displace_util 
	       Original         Target           Dq
	   2.4755414047   2.5231496794   0.0476082747
	   2.0408929209   2.0529243794   0.0120314586
	   2.0409010047   2.0529244061   0.0120234014
	   2.0408929209   2.0529241432   0.0120312223
	   2.0408935245   2.0529241836   0.0120306591
	   2.0943978474   2.1188225626   0.0244247151
	   2.0943986152   2.1188229207   0.0244243055
	   2.0943978474   2.1188294292   0.0244315818
	   2.0943946628   2.1188323187   0.0244376559
	   2.0943888383   2.0455397299  -0.0488491084
	   2.0943822674   2.0455424255  -0.0488398419
	   3.1415926536   3.1402972785  -0.0012953751
	  -0.0049312495   0.0005176473   0.0054488968
	   0.0001199760  -0.0003275025  -0.0004474785
	   3.1367813801   3.1430781735   0.0062967934
	---------------------------------------------------
	 Iter        RMS(dx)        Max(dx)        RMS(dq) 
	---------------------------------------------------
	    1        3.6e-02        7.3e-02        3.4e-04
	    2        4.8e-02        9.5e-02        6.8e-04
	    3        8.0e+00        1.6e+01        4.8e+00
	    4        1.7e+03        2.6e+03        1.5e+03
	---------------------------------------------------

	Report of back-transformation:
	  int       q_target          Error
	-----------------------------------
	    1   2.52314967942525.1524103549
	    2   2.05292437942606.7631947275
	    3   2.05292440612476.0744147434
	    4   2.05292414322651.5508042821
	    5   2.05292418362514.0255726760
	    6   2.1188225626   2.0775347086
	    7   2.1188229207   1.9740448355
	    8   2.1188294292   2.0681298879
	    9   2.1188323187   1.9894845676
	   10   2.0455397299   2.1523305045
	   11   2.0455424255   2.1424027371
	   12   3.1402972785   0.0027822055
	   13   0.0005176473  -0.4672620189
	   14  -0.0003275025   0.4676634584
	   15   3.1430781735  -0.0023807660

	Could not converge backtransformation.
	Using first guess instead.

	--- Internal Coordinate Step in ANG or DEG, aJ/ANG or AJ/DEG ---
	 ---------------------------------------------------------------------------
	   Coordinate                Previous        Force       Change         New 
	   ----------                --------       ------       ------       ------
	    1 R(1,2)          =      1.310000     0.254069     0.025194     1.335194
	    2 R(1,5)          =      1.079994     0.035962     0.006688     1.086682
	    3 R(1,6)          =      1.079998     0.035937     0.006689     1.086688
	    4 R(2,3)          =      1.079994     0.035961     0.006687     1.086681
	    5 R(2,4)          =      1.079994     0.035959     0.006689     1.086683
	    6 B(1,2,3)        =    120.000157     0.000303     1.390925   121.391082
	    7 B(1,2,4)        =    120.000201     0.000303     1.390985   121.391187
	    8 B(2,1,5)        =    120.000157     0.000303     1.391210   121.391367
	    9 B(2,1,6)        =    119.999975     0.000303     1.391234   121.391208
	   10 B(3,2,4)        =    119.999641    -0.000605    -2.781931   117.217710
	   11 B(5,1,6)        =    119.999265    -0.000605    -2.781925   117.217339
	   12 D(3,2,1,5)      =    180.000000    -0.000001    -0.074834   179.925166
	   13 D(3,2,1,6)      =     -0.282540     0.000003     0.316751     0.034211
	   14 D(4,2,1,5)      =      0.006874    -0.000000    -0.027819    -0.020945
	   15 D(4,2,1,6)      =    179.724334     0.000004     0.363766   180.088101
	 ---------------------------------------------------------------------------
	Successfully symmetrized geometry.
Symmetrized geometry
  1.261572  0.000002  0.002746
 -1.261578  0.000001  0.001139
 -2.331212 -1.752957 -0.000311
 -2.331219  1.752960 -0.000421
  2.331218  1.752957  0.001907
  2.331220 -1.752963  0.001610

  ==> Convergence Check <==

  Measures of convergence in internal coordinates in au.
  Criteria marked as inactive (o), active & met (*), and active & unmet ( ).
  --------------------------------------------------------------------------------------------- ~
   Step     Total Energy     Delta E     MAX Force     RMS Force      MAX Disp      RMS Disp    ~
  --------------------------------------------------------------------------------------------- ~
    Convergence Criteria    1.00e-06 *    3.00e-04 *             o    1.20e-03 *             o  ~
  --------------------------------------------------------------------------------------------- ~
      1     -78.59236484   -7.86e+01      3.08e-02      9.01e-03 o    4.86e-02      2.59e-02 o  ~
  ---------------------------------------------------------------------------------------------

	Writing optimization data to binary file.
	Structure for next step:
	Cartesian Geometry (in Angstrom)
	    C     0.6675952345   0.0000012712   0.0014528813
	    C    -0.6675984914   0.0000005673   0.0006028480
	    H    -1.2336244425  -0.9276250572  -0.0001648373
	    H    -1.2336282034   0.9276263844  -0.0002226470
	    H     1.2336272082   0.9276248583   0.0010089953
	    H     1.2336286946  -0.9276280239   0.0008520137
			--------------------------
			 OPTKING Finished Execution 
			--------------------------

    Structure for next step:
    Molecular point group: c1
    Full point group: C1

    Geometry (in Angstrom), charge = 0, multiplicity = 1:

    C            0.667596514285     0.000000550246     0.000519859729
    C           -0.667597216853    -0.000000153646    -0.000330173492
    H           -1.233623170251    -0.927625781791    -0.001097858868
    H           -1.233626931128     0.927625667058    -0.001155668547
    H            1.233628490142     0.927624141019     0.000075973737
    H            1.233629976586    -0.927628748529    -0.000081007851

gradient() will perform analytic gradient computation.

*** tstart() called on FACC02D75Y4MD6T.tld
*** at Mon Sep 21 09:43:55 2020

   => Loading Basis Set <=

    Name: 6-31G(D_P)
    Role: ORBITAL
    Keyword: BASIS
    atoms 1-2 entry C          line   115 file /Users/blais.ch/anaconda3/envs/rmg_env/share/psi4/basis/6-31g_d_p_.gbs 
    atoms 3-6 entry H          line    44 file /Users/blais.ch/anaconda3/envs/rmg_env/share/psi4/basis/6-31g_d_p_.gbs 


         ---------------------------------------------------------
                                   SCF
               by Justin Turney, Rob Parrish, Andy Simmonett
                          and Daniel G. A. Smith
                              RKS Reference
                        1 Threads,    976 MiB Core
         ---------------------------------------------------------

  ==> Geometry <==

    Molecular point group: c1
    Full point group: C1

    Geometry (in Angstrom), charge = 0, multiplicity = 1:

       Center              X                  Y                   Z               Mass       
    ------------   -----------------  -----------------  -----------------  -----------------
         C            0.667596514285     0.000000550246     0.000519859729    12.000000000000
         C           -0.667597216853    -0.000000153646    -0.000330173492    12.000000000000
         H           -1.233623170251    -0.927625781791    -0.001097858868     1.007825032230
         H           -1.233626931128     0.927625667058    -0.001155668547     1.007825032230
         H            1.233628490142     0.927624141019     0.000075973737     1.007825032230
         H            1.233629976586    -0.927628748529    -0.000081007851     1.007825032230

           C
              BASIS           6-31G(D_P)           a2828f8bd65c52d276d3a5c7992328305af36e8a
              DF_BASIS_SCF    (6-31G(D_P) AUX)     130a2f96e8083cf241f9163199d111676f18ec06
           C
              BASIS           6-31G(D_P)           a2828f8bd65c52d276d3a5c7992328305af36e8a
              DF_BASIS_SCF    (6-31G(D_P) AUX)     130a2f96e8083cf241f9163199d111676f18ec06
           H
              BASIS           6-31G(D_P)           902186d0f3205710946c2c15d2c68458d6f6cc2a
              DF_BASIS_SCF    (6-31G(D_P) AUX)     1164366b470d7a66fddaf681ef9d1c28421b3e4a
           H
              BASIS           6-31G(D_P)           902186d0f3205710946c2c15d2c68458d6f6cc2a
              DF_BASIS_SCF    (6-31G(D_P) AUX)     1164366b470d7a66fddaf681ef9d1c28421b3e4a
           H
              BASIS           6-31G(D_P)           902186d0f3205710946c2c15d2c68458d6f6cc2a
              DF_BASIS_SCF    (6-31G(D_P) AUX)     1164366b470d7a66fddaf681ef9d1c28421b3e4a
           H
              BASIS           6-31G(D_P)           902186d0f3205710946c2c15d2c68458d6f6cc2a
              DF_BASIS_SCF    (6-31G(D_P) AUX)     1164366b470d7a66fddaf681ef9d1c28421b3e4a

  Running in c1 symmetry.

  Rotational constants: A =      4.85965  B =      1.00156  C =      0.83041 [cm^-1]
  Rotational constants: A = 145688.72965  B =  30025.89561  C =  24895.11211 [MHz]
  Nuclear repulsion =   33.300874336495632

  Charge       = 0
  Multiplicity = 1
  Electrons    = 16
  Nalpha       = 8
  Nbeta        = 8

  ==> Algorithm <==

  SCF Algorithm Type is DIRECT.
  DIIS enabled.
  MOM disabled.
  Fractional occupation disabled.
  Guess Type is READ.
  Energy threshold   = 1.00e-08
  Density threshold  = 1.00e-08
  Integral threshold = 0.00e+00

  ==> Primary Basis <==

  -AO BASIS SET INFORMATION:
    Name                   = 6-31G(D_P)
    Blend                  = 6-31G(D_P)
    Total number of shells = 24
    Number of primitives   = 50
    Number of AO           = 50
    Number of SO           = 50
    Maximum AM             = 2
    Spherical Harmonics    = FALSE

  -Contraction Scheme:
    Atom   Type   All Primitives // Shells:
   ------ ------ --------------------------
       1     C     10s 4p 1d // 3s 2p 1d 
       2     C     10s 4p 1d // 3s 2p 1d 
       3     H     4s 1p // 2s 1p 
       4     H     4s 1p // 2s 1p 
       5     H     4s 1p // 2s 1p 
       6     H     4s 1p // 2s 1p 

  ==> AO Basis Functions <==

    [ 6-31G(D_P) ]
    cartesian
    ****
    C   1
    S   6 1.00
                      3047.52490000           0.00183470
                       457.36951000           0.01403730
                       103.94869000           0.06884260
                        29.21015500           0.23218440
                         9.28666300           0.46794130
                         3.16392700           0.36231200
    S   3 1.00
                         7.86827240          -0.11933240
                         1.88128850          -0.16085420
                         0.54424930           1.14345640
    P   3 1.00
                         7.86827240           0.06899910
                         1.88128850           0.31642400
                         0.54424930           0.74430830
    S   1 1.00
                         0.16871440           1.00000000
    P   1 1.00
                         0.16871440           1.00000000
    D   1 1.00
                         0.80000000           1.00000000
    ****
    C   2
    S   6 1.00
                      3047.52490000           0.00183470
                       457.36951000           0.01403730
                       103.94869000           0.06884260
                        29.21015500           0.23218440
                         9.28666300           0.46794130
                         3.16392700           0.36231200
    S   3 1.00
                         7.86827240          -0.11933240
                         1.88128850          -0.16085420
                         0.54424930           1.14345640
    P   3 1.00
                         7.86827240           0.06899910
                         1.88128850           0.31642400
                         0.54424930           0.74430830
    S   1 1.00
                         0.16871440           1.00000000
    P   1 1.00
                         0.16871440           1.00000000
    D   1 1.00
                         0.80000000           1.00000000
    ****
    H   3
    S   3 1.00
                        18.73113700           0.03349460
                         2.82539370           0.23472695
                         0.64012170           0.81375733
    S   1 1.00
                         0.16127780           1.00000000
    P   1 1.00
                         1.10000000           1.00000000
    ****
    H   4
    S   3 1.00
                        18.73113700           0.03349460
                         2.82539370           0.23472695
                         0.64012170           0.81375733
    S   1 1.00
                         0.16127780           1.00000000
    P   1 1.00
                         1.10000000           1.00000000
    ****
    H   5
    S   3 1.00
                        18.73113700           0.03349460
                         2.82539370           0.23472695
                         0.64012170           0.81375733
    S   1 1.00
                         0.16127780           1.00000000
    P   1 1.00
                         1.10000000           1.00000000
    ****
    H   6
    S   3 1.00
                        18.73113700           0.03349460
                         2.82539370           0.23472695
                         0.64012170           0.81375733
    S   1 1.00
                         0.16127780           1.00000000
    P   1 1.00
                         1.10000000           1.00000000
    ****

  ==> DFT Potential <==

   => Composite Functional: B3LYP <= 

    B3LYP Hyb-GGA Exchange-Correlation Functional

    P. J. Stephens, F. J. Devlin, C. F. Chabalowski, and M. J. Frisch, J. Phys. Chem. 98, 11623 (1994)

    Deriv               =              1
    GGA                 =           TRUE
    Meta                =          FALSE

    Exchange Hybrid     =           TRUE
    MP2 Hybrid          =          FALSE

   => Exchange Functionals <=

    0.0800   Slater exchange
    0.7200         Becke 88

   => Exact (HF) Exchange <=

    0.2000               HF 

   => Correlation Functionals <=

    0.1900   Vosko, Wilk & Nusair (VWN5_RPA)
    0.8100   Lee, Yang & Parr

   => XC_HYB_GGA_XC_B3LYP Functional <=

    B3LYP
    P. J. Stephens, F. J. Devlin, C. F. Chabalowski, and M. J. Frisch, J. Phys. Chem. 98, 11623 (1994)
    GGA   =           TRUE
    Meta  =          FALSE
    LRC   =          FALSE
    Alpha =   1.000000E+00
    Omega =   0.000000E+00

    > Parameters <


   => Molecular Quadrature <=

    Radial Scheme          =       TREUTLER
    Pruning Scheme         =           FLAT
    Nuclear Scheme         =       TREUTLER

    BS radius alpha        =              1
    Pruning alpha          =              1
    Radial Points          =             75
    Spherical Points       =            302
    Total Points           =         131764
    Total Blocks           =           1077
    Max Points             =            256
    Max Functions          =             50

   => Loading Basis Set <=

    Name: (6-31G(D_P) AUX)
    Role: JKFIT
    Keyword: DF_BASIS_SCF
    atoms 1-2 entry C          line   121 file /Users/blais.ch/anaconda3/envs/rmg_env/share/psi4/basis/cc-pvdz-jkfit.gbs 
    atoms 3-6 entry H          line    51 file /Users/blais.ch/anaconda3/envs/rmg_env/share/psi4/basis/cc-pvdz-jkfit.gbs 

   => Loading Basis Set <=

    Name: 6-31G(D_P)
    Role: ORBITAL
    Keyword: BASIS
    atoms 1-2 entry C          line   115 file /Users/blais.ch/anaconda3/envs/rmg_env/share/psi4/basis/6-31g_d_p_.gbs 
    atoms 3-6 entry H          line    44 file /Users/blais.ch/anaconda3/envs/rmg_env/share/psi4/basis/6-31g_d_p_.gbs 

  Reading orbitals from file 180, no projection.

  Starting with a DF guess...

  ==> Pre-Iterations <==

   -------------------------------------------------------
    Irrep   Nso     Nmo     Nalpha   Nbeta   Ndocc  Nsocc
   -------------------------------------------------------
     A         50      50       0       0       0       0
   -------------------------------------------------------
    Total      50      50       8       8       8       0
   -------------------------------------------------------

  ==> Integral Setup <==

  DFHelper Memory: AOs need 0.006 GiB; user supplied 0.543 GiB. Using in-core AOs.

  ==> MemDFJK: Density-Fitted J/K Matrices <==

    J tasked:                   Yes
    K tasked:                   Yes
    wK tasked:                   No
    OpenMP threads:               1
    Memory [MiB]:               555
    Algorithm:                 Core
    Schwarz Cutoff:           1E-12
    Mask sparsity (%):       0.0000
    Fitting Condition:        1E-10

   => Auxiliary Basis Set <=

  -AO BASIS SET INFORMATION:
    Name                   = (6-31G(D_P) AUX)
    Blend                  = CC-PVDZ-JKFIT
    Total number of shells = 84
    Number of primitives   = 84
    Number of AO           = 262
    Number of SO           = 262
    Maximum AM             = 3
    Spherical Harmonics    = FALSE

  -Contraction Scheme:
    Atom   Type   All Primitives // Shells:
   ------ ------ --------------------------
       1     C     10s 7p 5d 2f // 10s 7p 5d 2f 
       2     C     10s 7p 5d 2f // 10s 7p 5d 2f 
       3     H     4s 3p 2d // 4s 3p 2d 
       4     H     4s 3p 2d // 4s 3p 2d 
       5     H     4s 3p 2d // 4s 3p 2d 
       6     H     4s 3p 2d // 4s 3p 2d 

  ==> AO Basis Functions <==

    [ (6-31G(D_P) AUX) ]
    cartesian
    ****
    C   1
    S   1 1.00
                      1113.98677190           1.00000000
    S   1 1.00
                       369.16234180           1.00000000
    S   1 1.00
                       121.79275232           1.00000000
    S   1 1.00
                        48.12711454           1.00000000
    S   1 1.00
                        20.36507400           1.00000000
    S   1 1.00
                         8.08835969           1.00000000
    S   1 1.00
                         2.50686566           1.00000000
    S   1 1.00
                         1.24385374           1.00000000
    S   1 1.00
                         0.48449900           1.00000000
    S   1 1.00
                         0.19185160           1.00000000
    P   1 1.00
                       102.99176249           1.00000000
    P   1 1.00
                        28.13259401           1.00000000
    P   1 1.00
                         9.83643182           1.00000000
    P   1 1.00
                         3.34905450           1.00000000
    P   1 1.00
                         1.49476186           1.00000000
    P   1 1.00
                         0.57690109           1.00000000
    P   1 1.00
                         0.20320063           1.00000000
    D   1 1.00
                        10.59406836           1.00000000
    D   1 1.00
                         3.59971954           1.00000000
    D   1 1.00
                         1.33556911           1.00000000
    D   1 1.00
                         0.51949765           1.00000000
    D   1 1.00
                         0.19954125           1.00000000
    F   1 1.00
                         1.19486634           1.00000000
    F   1 1.00
                         0.41586634           1.00000000
    ****
    C   2
    S   1 1.00
                      1113.98677190           1.00000000
    S   1 1.00
                       369.16234180           1.00000000
    S   1 1.00
                       121.79275232           1.00000000
    S   1 1.00
                        48.12711454           1.00000000
    S   1 1.00
                        20.36507400           1.00000000
    S   1 1.00
                         8.08835969           1.00000000
    S   1 1.00
                         2.50686566           1.00000000
    S   1 1.00
                         1.24385374           1.00000000
    S   1 1.00
                         0.48449900           1.00000000
    S   1 1.00
                         0.19185160           1.00000000
    P   1 1.00
                       102.99176249           1.00000000
    P   1 1.00
                        28.13259401           1.00000000
    P   1 1.00
                         9.83643182           1.00000000
    P   1 1.00
                         3.34905450           1.00000000
    P   1 1.00
                         1.49476186           1.00000000
    P   1 1.00
                         0.57690109           1.00000000
    P   1 1.00
                         0.20320063           1.00000000
    D   1 1.00
                        10.59406836           1.00000000
    D   1 1.00
                         3.59971954           1.00000000
    D   1 1.00
                         1.33556911           1.00000000
    D   1 1.00
                         0.51949765           1.00000000
    D   1 1.00
                         0.19954125           1.00000000
    F   1 1.00
                         1.19486634           1.00000000
    F   1 1.00
                         0.41586634           1.00000000
    ****
    H   3
    S   1 1.00
                         9.53024933           1.00000000
    S   1 1.00
                         1.91745062           1.00000000
    S   1 1.00
                         0.68424049           1.00000000
    S   1 1.00
                         0.28413256           1.00000000
    P   1 1.00
                         2.91332320           1.00000000
    P   1 1.00
                         1.26212054           1.00000000
    P   1 1.00
                         0.50199776           1.00000000
    D   1 1.00
                         2.31353291           1.00000000
    D   1 1.00
                         0.71290724           1.00000000
    ****
    H   4
    S   1 1.00
                         9.53024933           1.00000000
    S   1 1.00
                         1.91745062           1.00000000
    S   1 1.00
                         0.68424049           1.00000000
    S   1 1.00
                         0.28413256           1.00000000
    P   1 1.00
                         2.91332320           1.00000000
    P   1 1.00
                         1.26212054           1.00000000
    P   1 1.00
                         0.50199776           1.00000000
    D   1 1.00
                         2.31353291           1.00000000
    D   1 1.00
                         0.71290724           1.00000000
    ****
    H   5
    S   1 1.00
                         9.53024933           1.00000000
    S   1 1.00
                         1.91745062           1.00000000
    S   1 1.00
                         0.68424049           1.00000000
    S   1 1.00
                         0.28413256           1.00000000
    P   1 1.00
                         2.91332320           1.00000000
    P   1 1.00
                         1.26212054           1.00000000
    P   1 1.00
[...]
 [ 1.2508096267e-01 -2.6630596873e-01  9.6599557276e-05 -2.0689146892e-03
   3.8030384685e-03 -6.0869671238e-07  1.4069151872e-04  1.3374276656e-03
  -3.4729737038e-06 -7.6419520981e-04  1.6215602703e-03  3.9557055503e-06
   1.3994168135e-02 -1.6322491963e-02  1.1576033507e-05 -1.3638271242e-01
   2.7586643429e-01 -1.0804962592e-04]
 [-8.1955589204e-05  1.0956125113e-04 -3.6307060276e-02 -6.3744102965e-06
   1.9996708761e-05  5.1510069928e-03  3.1262661824e-06 -3.5888084529e-06
  -8.6811045269e-03 -6.4416715878e-06 -3.9492703518e-06  1.3123181721e-02
   6.1141450351e-06 -1.3970255163e-05  2.4548090578e-03  8.5531259871e-05
  -1.0804962592e-04  2.4259167032e-02]]

-------------------------------------------------------------


  ==> Harmonic Vibrational Analysis <==

  non-mass-weighted Hessian:       Symmetric? True   Hermitian? True   Lin Dep Dim?  6 (0)
  projection of translations (True) and rotations (True) removed 6 degrees of freedom (6)
  total projector:                 Symmetric? True   Hermitian? True   Lin Dep Dim?  6 (6)
  mass-weighted Hessian:           Symmetric? True   Hermitian? True   Lin Dep Dim?  6 (0)
  pre-proj  low-frequency mode:    0.0000i [cm^-1]
  pre-proj  low-frequency mode:    0.0000i [cm^-1]
  pre-proj  low-frequency mode:    0.0000  [cm^-1]
  pre-proj  low-frequency mode:    0.0000  [cm^-1]
  pre-proj  low-frequency mode:    0.0000  [cm^-1]
  pre-proj  low-frequency mode:    0.0000  [cm^-1]
  pre-proj  all modes:['0.0000i' '0.0000i' '0.0000' '0.0000' '0.0000' '0.0000' '831.2954'
 '961.1603' '976.7838' '1069.2955' '1241.3229' '1388.3789' '1483.0604'
 '1715.1324' '3144.8482' '3160.6048' '3220.5713' '3246.4897']
  projected mass-weighted Hessian: Symmetric? True   Hermitian? True   Lin Dep Dim?  6 (6)
  post-proj low-frequency mode:    0.0000i [cm^-1] (TR)
  post-proj low-frequency mode:    0.0000i [cm^-1] (TR)
  post-proj low-frequency mode:    0.0000i [cm^-1] (TR)
  post-proj low-frequency mode:    0.0000  [cm^-1] (TR)
  post-proj low-frequency mode:    0.0000  [cm^-1] (TR)
  post-proj low-frequency mode:    0.0000  [cm^-1] (TR)
  post-proj  all modes:['0.0000i' '0.0000i' '0.0000i' '0.0000' '0.0000' '0.0000' '831.2954'
 '961.1603' '976.7838' '1069.2955' '1241.3229' '1388.3789' '1483.0604'
 '1715.1324' '3144.8482' '3160.6048' '3220.5713' '3246.4897']

  Vibration                       7                   8                   9           
  Freq [cm^-1]                 831.2954            961.1603            976.7838       
  Irrep                           A                   A                   A           
  Reduced mass [u]              1.0427              1.5201              1.1607        
  Force const [mDyne/A]         0.4245              0.8274              0.6525        
  Turning point v=0 [a0]        0.3727              0.2871              0.3259        
  RMS dev v=0 [a0 u^1/2]        0.2691              0.2503              0.2483        
  Char temp [K]               1196.0490           1382.8957           1405.3744       
  ----------------------------------------------------------------------------------
      1   C               -0.00  0.04  0.00   -0.00 -0.00  0.15    0.00  0.00 -0.08   
      2   C               -0.00  0.04  0.00    0.00  0.00 -0.15    0.00  0.00 -0.08   
      3   H                0.44 -0.24  0.00   -0.00  0.00  0.49   -0.00  0.00  0.50   
      4   H               -0.44 -0.24 -0.00   -0.00 -0.00  0.49   -0.00 -0.00  0.50   
      5   H                0.44 -0.24  0.00    0.00  0.00 -0.49   -0.00 -0.00  0.50   
      6   H               -0.44 -0.24 -0.00    0.00 -0.00 -0.49   -0.00  0.00  0.50   

  Vibration                       10                  11                  12          
  Freq [cm^-1]                1069.2955           1241.3229           1388.3789       
  Irrep                           A                   A                   A           
  Reduced mass [u]              1.0078              1.5260              1.2140        
  Force const [mDyne/A]         0.6789              1.3854              1.3788        
  Turning point v=0 [a0]        0.3342              0.2521              0.2673        
  RMS dev v=0 [a0 u^1/2]        0.2373              0.2202              0.2082        
  Char temp [K]               1538.4781           1785.9873           1997.5681       
  ----------------------------------------------------------------------------------
      1   C                0.00  0.00  0.00    0.00  0.15  0.00   -0.10  0.00 -0.00   
      2   C                0.00 -0.00  0.00    0.00 -0.15 -0.00    0.10 -0.00  0.00   
      3   H               -0.00  0.00  0.50   -0.47  0.14 -0.00    0.45 -0.20  0.00   
      4   H                0.00  0.00 -0.50    0.47  0.14  0.00    0.45  0.20  0.00   
      5   H               -0.00 -0.00  0.50    0.47 -0.14  0.00   -0.45  0.20 -0.00   
      6   H                0.00 -0.00 -0.50   -0.47 -0.14 -0.00   -0.45 -0.20 -0.00   

  Vibration                       13                  14                  15          
  Freq [cm^-1]                1483.0604           1715.1324           3144.8482       
  Irrep                           A                   A                   A           
  Reduced mass [u]              1.1120              3.1883              1.0477        
  Force const [mDyne/A]         1.4410              5.5258              6.1050        
  Turning point v=0 [a0]        0.2702              0.1484              0.1912        
  RMS dev v=0 [a0 u^1/2]        0.2015              0.1873              0.1384        
  Char temp [K]               2133.7938           2467.6937           4524.7364       
  ----------------------------------------------------------------------------------
      1   C               -0.07  0.00 -0.00    0.31  0.00  0.00   -0.04 -0.00 -0.00   
      2   C               -0.07 -0.00 -0.00   -0.31 -0.00 -0.00   -0.04  0.00 -0.00   
      3   H                0.41 -0.28  0.00    0.23 -0.38  0.00    0.25  0.43  0.00   
      4   H                0.41  0.28  0.00    0.23  0.38  0.00    0.25 -0.43  0.00   
      5   H                0.41 -0.28  0.00   -0.23  0.38 -0.00    0.25  0.43  0.00   
      6   H                0.41  0.28  0.00   -0.23 -0.38 -0.00    0.25 -0.43  0.00   

  Vibration                       16                  17                  18          
  Freq [cm^-1]                3160.6048           3220.5713           3246.4897       
  Irrep                           A                   A                   A           
  Reduced mass [u]              1.0747              1.1146              1.1177        
  Force const [mDyne/A]         6.3255              6.8113              6.9405        
  Turning point v=0 [a0]        0.1883              0.1831              0.1822        
  RMS dev v=0 [a0 u^1/2]        0.1380              0.1367              0.1362        
  Char temp [K]               4547.4067           4633.6851           4670.9758       
  ----------------------------------------------------------------------------------
      1   C                0.06 -0.00  0.00    0.00  0.07  0.00    0.00 -0.07 -0.00   
      2   C               -0.06  0.00 -0.00   -0.00 -0.07 -0.00   -0.00 -0.07 -0.00   
      3   H                0.26  0.43  0.00    0.27  0.42  0.00    0.27  0.42  0.00   
      4   H                0.26 -0.43  0.00   -0.27  0.42 -0.00   -0.27  0.42 -0.00   
      5   H               -0.26 -0.43 -0.00   -0.27 -0.42 -0.00    0.27  0.42  0.00   
      6   H               -0.26  0.43 -0.00    0.27 -0.42  0.00   -0.27  0.42 -0.00   

  ==> Thermochemistry Components <==

  Entropy, S
    Electronic S            0.000 [cal/(mol K)]        0.000 [J/(mol K)]       0.00000000 [mEh/K] (multiplicity = 1)
    Translational S        35.927 [cal/(mol K)]      150.318 [J/(mol K)]       0.05725309 [mEh/K] (mol. weight = 28.0313 [u], P = 101325.00 [Pa])
    Rotational S           18.615 [cal/(mol K)]       77.884 [J/(mol K)]       0.02966453 [mEh/K] (symmetry no. = 1)
    Vibrational S           0.537 [cal/(mol K)]        2.247 [J/(mol K)]       0.00085592 [mEh/K]
  Total S                  55.079 [cal/(mol K)]      230.449 [J/(mol K)]       0.08777354 [mEh/K]
  Correction S              0.000 [cal/(mol K)]        0.000 [J/(mol K)]       0.00000000 [mEh/K]

  Constant volume heat capacity, Cv
    Electronic Cv           0.000 [cal/(mol K)]        0.000 [J/(mol K)]       0.00000000 [mEh/K]
    Translational Cv        2.981 [cal/(mol K)]       12.472 [J/(mol K)]       0.00475022 [mEh/K]
    Rotational Cv           2.981 [cal/(mol K)]       12.472 [J/(mol K)]       0.00475022 [mEh/K]
    Vibrational Cv          2.137 [cal/(mol K)]        8.941 [J/(mol K)]       0.00340533 [mEh/K]
  Total Cv                  8.098 [cal/(mol K)]       33.884 [J/(mol K)]       0.01290576 [mEh/K]
  Correction Cv             0.000 [cal/(mol K)]        0.000 [J/(mol K)]       0.00000000 [mEh/K]

  Constant pressure heat capacity, Cp
    Electronic Cp           0.000 [cal/(mol K)]        0.000 [J/(mol K)]       0.00000000 [mEh/K]
    Translational Cp        4.968 [cal/(mol K)]       20.786 [J/(mol K)]       0.00791703 [mEh/K]
    Rotational Cp           2.981 [cal/(mol K)]       12.472 [J/(mol K)]       0.00475022 [mEh/K]
    Vibrational Cp          2.137 [cal/(mol K)]        8.941 [J/(mol K)]       0.00340533 [mEh/K]
  Total Cp                 10.086 [cal/(mol K)]       42.199 [J/(mol K)]       0.01607257 [mEh/K]
  Correction Cp             0.000 [cal/(mol K)]        0.000 [J/(mol K)]       0.00000000 [mEh/K]

  ==> Thermochemistry Energy Analysis <==

  Raw electronic energy, E0
  Total E0, Electronic energy at well bottom at 0 [K]                  -78.59380770 [Eh]

  Zero-point energy, ZPE_vib = Sum_i nu_i / 2
    Electronic ZPE          0.000 [kcal/mol]        0.000 [kJ/mol]       0.00000000 [Eh]
    Translational ZPE       0.000 [kcal/mol]        0.000 [kJ/mol]       0.00000000 [Eh]
    Rotational ZPE          0.000 [kcal/mol]        0.000 [kJ/mol]       0.00000000 [Eh]
    Vibrational ZPE        32.078 [kcal/mol]      134.215 [kJ/mol]       0.05111967 [Eh]       11219.472 [cm^-1]
  Correction ZPE           32.078 [kcal/mol]      134.215 [kJ/mol]       0.05111967 [Eh]       11219.472 [cm^-1]
  Total ZPE, Electronic energy at 0 [K]                                -78.54268803 [Eh]

  Thermal Energy, E (includes ZPE)
    Electronic E            0.000 [kcal/mol]        0.000 [kJ/mol]       0.00000000 [Eh]
    Translational E         0.889 [kcal/mol]        3.718 [kJ/mol]       0.00141628 [Eh]
    Rotational E            0.889 [kcal/mol]        3.718 [kJ/mol]       0.00141628 [Eh]
    Vibrational E          32.210 [kcal/mol]      134.767 [kJ/mol]       0.05132998 [Eh]
  Correction E             33.988 [kcal/mol]      142.204 [kJ/mol]       0.05416254 [Eh]
  Total E, Electronic energy at  298.15 [K]                            -78.53964517 [Eh]

  Enthalpy, H_trans = E_trans + k_B * T
    Electronic H            0.000 [kcal/mol]        0.000 [kJ/mol]       0.00000000 [Eh]
    Translational H         1.481 [kcal/mol]        6.197 [kJ/mol]       0.00236046 [Eh]
    Rotational H            0.889 [kcal/mol]        3.718 [kJ/mol]       0.00141628 [Eh]
    Vibrational H          32.210 [kcal/mol]      134.767 [kJ/mol]       0.05132998 [Eh]
  Correction H             34.580 [kcal/mol]      144.683 [kJ/mol]       0.05510672 [Eh]
  Total H, Enthalpy at  298.15 [K]                                     -78.53870098 [Eh]

  Gibbs free energy, G = H - T * S
    Electronic G            0.000 [kcal/mol]        0.000 [kJ/mol]       0.00000000 [Eh]
    Translational G        -9.230 [kcal/mol]      -38.620 [kJ/mol]      -0.01470955 [Eh]
    Rotational G           -4.661 [kcal/mol]      -19.503 [kJ/mol]      -0.00742820 [Eh]
    Vibrational G          32.050 [kcal/mol]      134.097 [kJ/mol]       0.05107479 [Eh]
  Correction G             18.158 [kcal/mol]       75.974 [kJ/mol]       0.02893704 [Eh]
  Total G, Free enthalpy at  298.15 [K]                                -78.56487066 [Eh]
  ## New Matrix (Symmetry 0) ##
  Irrep: 1 Size: 18 x 18

                 1                   2                   3                   4                   5

    1     0.87838334603747    -0.00000000217113     0.00043703899692    -0.58964672167827     0.00000001776809
    2    -0.00000000217113     0.63848261712447     0.00001419935734     0.00000002038915    -0.11347685463907
    3     0.00043703899692     0.00001419935734     0.10832848879537    -0.00027642039930    -0.00000180491899
    4    -0.58964672167827     0.00000002038915    -0.00027642039930     0.87838210402424    -0.00000002227528
    5     0.00000001776809    -0.11347685463907    -0.00000180491899    -0.00000002227528     0.63848385863253
    6    -0.00024422279168    -0.00000180137636    -0.04601637192271     0.00030022695707     0.00001414091045
    7    -0.01304732061274    -0.02996769516147    -0.00000437453941    -0.13132026384975    -0.12131409905677
    8     0.00206895643405     0.00380266391338     0.00000138590147    -0.12508072848828    -0.26630672766085
    9    -0.00001104516376    -0.00000872222255     0.00515100730715    -0.00000891855669    -0.00000644150609
   10    -0.01304738038481     0.02996760243785    -0.00000277489840    -0.13132033361643     0.12131447392306
   11    -0.00206894125924     0.00380351560113    -0.00000145702730     0.12508064570045    -0.26630635332656
   12    -0.00000859601544     0.00000865014366     0.00515100898747     0.00000034289797    -0.00000582229453
   13    -0.13132095669217    -0.12131381447161    -0.00007998437232    -0.01304724743405    -0.02996798652125
   14    -0.12508099344159    -0.26630597326951    -0.00010892286981     0.00206899936315     0.00380303852547
   15    -0.00009121943683    -0.00012188715321    -0.03630707289126    -0.00000885648875    -0.00002006889961
   16    -0.13132096666947     0.12131388897721    -0.00007348478748    -0.01304753744574     0.02996761616215
   17     0.12508096266983    -0.26630596873040     0.00009659955728    -0.00206891468919     0.00380303846848
   18    -0.00008195558920     0.00010956125113    -0.03630706027602    -0.00000637441030     0.00001999670876

                 6                   7                   8                   9                  10

    1    -0.00024422279168    -0.01304732061274     0.00206895643405    -0.00001104516376    -0.01304738038481
    2    -0.00000180137636    -0.02996769516147     0.00380266391338    -0.00000872222255     0.02996760243785
    3    -0.04601637192271    -0.00000437453941     0.00000138590147     0.00515100730715    -0.00000277489840
    4     0.00030022695707    -0.13132026384975    -0.12508072848828    -0.00000891855669    -0.13132033361643
    5     0.00001414091045    -0.12131409905677    -0.26630672766085    -0.00000644150609     0.12131447392306
    6     0.10832834880101    -0.00001741442057    -0.00002304291774    -0.03630699474770    -0.00001094411808
    7    -0.00001741442057     0.13805805255948     0.13638305291699     0.00002333644767     0.00987943941104
    8    -0.00002304291774     0.13638305291699     0.27586690809668     0.00002236601631    -0.01399448428903
    9    -0.03630699474770     0.00002333644767     0.00002236601631     0.02425910564503     0.00000097871434
   10    -0.00001094411808     0.00987943941104    -0.01399448428903     0.00000097871434     0.13805823017009
   11     0.00001077639108     0.01399388534560    -0.01632199696053    -0.00000054286898    -0.13638269710593
   12    -0.03630699479879     0.00000044587266    -0.00000178007755     0.00245480396725     0.00001478341311
   13    -0.00001462499994    -0.00500416529482     0.00076395330738    -0.00001091316537     0.00143411225723
   14     0.00000053568928     0.00076416443693     0.00162172494575    -0.00000318644498    -0.00014069975614
   15     0.00515100567543    -0.00000511962653     0.00000465988596     0.01312318235518     0.00000439856061
   16    -0.00001302062681     0.00143425778679    -0.00014074988110     0.00000656172380    -0.00500406783712
   17    -0.00000060869671     0.00014069151872     0.00133742766557    -0.00000347297370    -0.00076419520981
   18     0.00515100699277     0.00000312626618    -0.00000358880845    -0.00868110452692    -0.00000644167159

                11                  12                  13                  14                  15

    1    -0.00206894125924    -0.00000859601544    -0.13132095669217    -0.12508099344159    -0.00009121943683
    2     0.00380351560113     0.00000865014366    -0.12131381447161    -0.26630597326951    -0.00012188715321
    3    -0.00000145702730     0.00515100898747    -0.00007998437232    -0.00010892286981    -0.03630707289126
    4     0.12508064570045     0.00000034289797    -0.01304724743405     0.00206899936315    -0.00000885648875
    5    -0.26630635332656    -0.00000582229453    -0.02996798652125     0.00380303852547    -0.00002006889961
    6     0.00001077639108    -0.03630699479879    -0.00001462499994     0.00000053568928     0.00515100567543
    7     0.01399388534560     0.00000044587266    -0.00500416529482     0.00076416443693    -0.00000511962653
    8    -0.01632199696053    -0.00000178007755     0.00076395330738     0.00162172494575     0.00000465988596
    9    -0.00000054286898     0.00245480396725    -0.00001091316537    -0.00000318644498     0.01312318235518
   10    -0.13638269710593     0.00001478341311     0.00143411225723    -0.00014069975614     0.00000439856061
   11     0.27586601094714    -0.00000762711073     0.00014098063258     0.00133726346855     0.00000279988628
   12    -0.00000762711073     0.02425910488999     0.00000527289877     0.00000262363360    -0.00868110476661
   13     0.00014098063258     0.00000527289877     0.13805860805569     0.13638269891762     0.00009413549383
   14     0.00133726346855     0.00000262363360     0.13638269891762     0.27586643829236     0.00012292024708
   15     0.00000279988628    -0.00868110476661     0.00009413549383     0.00012292024708     0.02425918056943
   16    -0.00076387331347    -0.00001224906706     0.00987964910813    -0.01399416951996     0.00000666149768
   17     0.00162156027027     0.00000395570555     0.01399416813528    -0.01632249196262     0.00001157603351
   18    -0.00000394927035     0.01312318172068     0.00000611414504    -0.00001397025516     0.00245480905783

                16                  17                  18

    1    -0.13132096666947     0.12508096266983    -0.00008195558920
    2     0.12131388897721    -0.26630596873040     0.00010956125113
    3    -0.00007348478748     0.00009659955728    -0.03630706027602
    4    -0.01304753744574    -0.00206891468919    -0.00000637441030
    5     0.02996761616215     0.00380303846848     0.00001999670876
    6    -0.00001302062681    -0.00000060869671     0.00515100699277
    7     0.00143425778679     0.00014069151872     0.00000312626618
    8    -0.00014074988110     0.00133742766557    -0.00000358880845
    9     0.00000656172380    -0.00000347297370    -0.00868110452692
   10    -0.00500406783712    -0.00076419520981    -0.00000644167159
   11    -0.00076387331347     0.00162156027027    -0.00000394927035
   12    -0.00001224906706     0.00000395570555     0.01312318172068
   13     0.00987964910813     0.01399416813528     0.00000611414504
   14    -0.01399416951996    -0.01632249196262    -0.00001397025516
   15     0.00000666149768     0.00001157603351     0.00245480905783
   16     0.13805866505741    -0.13638271242482     0.00008553125987
   17    -0.13638271242482     0.27586643428870    -0.00010804962592
   18     0.00008553125987    -0.00010804962592     0.02425916703165




    Psi4 stopped on: Monday, 21 September 2020 09:45AM
    Psi4 wall time for execution: 0:02:07.82

*** Psi4 exiting successfully. Buy a developer a beer!
Optimizer: Optimization complete!
 25 displacements needed.
 1 2 3 4 5 6 7 8 9 10 11 12 13 14 15 16 17 18 19 20 21 22 23 24 25
