
Host: FACC02D75Y4MD6T.tld

Timers On : Mon Sep 21 10:54:53 2020
Timers Off: Mon Sep 21 10:54:56 2020

Wall Time:        3.42 seconds

                                                       Time (seconds)
Module                                       User      System        Wall        Calls

--------------------------------------------------------------------------------------

**************************************************************************************
