
    -----------------------------------------------------------------------
          Psi4: An Open-Source Ab Initio Electronic Structure Package
                               Psi4 1.3.2 release

                         Git: Rev {HEAD} ecbda83 


    R. M. Parrish, L. A. Burns, D. G. A. Smith, A. C. Simmonett,
    A. E. DePrince III, E. G. Hohenstein, U. Bozkaya, A. Yu. Sokolov,
    R. Di Remigio, R. M. Richard, J. F. Gonthier, A. M. James,
    H. R. McAlexander, A. Kumar, M. Saitow, X. Wang, B. P. Pritchard,
    P. Verma, H. F. Schaefer III, K. Patkowski, R. A. King, E. F. Valeev,
    F. A. Evangelista, J. M. Turney, T. D. Crawford, and C. D. Sherrill,
    J. Chem. Theory Comput. 13(7) pp 3185--3197 (2017).
    (doi: 10.1021/acs.jctc.7b00174)


                         Additional Contributions by
    P. Kraus, H. Kruse, M. H. Lechner, M. C. Schieber, R. A. Shaw,
    A. Alenaizan, R. Galvelis, Z. L. Glick, S. Lehtola, and J. P. Misiewicz

    -----------------------------------------------------------------------


    Psi4 started on: Sunday, 20 September 2020 10:42AM

    Process ID: 24574
    Host:       FACC02D75Y4MD6T.tld
    PSIDATADIR: /Users/blais.ch/anaconda3/envs/rmg_env/share/psi4
    Memory:     500.0 MiB
    Threads:    1
    
  ==> Input File <==

--------------------------------------------------------------------------
memory 1024 mb

molecule mol {
0 1
N 0.00000000 0.00000000 0.00000000
O 1.48000000 -0.00000000 0.00000000
H 2.00500000 -0.90932667 -0.00000000
O -0.62900000 1.08945996 0.00000000

}


set {
  scf_type DIRECT
  basis 6-31G(d_p)
  reference uks
  geom_maxiter 50
  print 3
}

optimize('b3lyp')
scf_e, wfn=frequencies('b3lyp', return_wfn=True, dertype=1)
wfn.hessian().print_out()
--------------------------------------------------------------------------

  Memory set to 976.562 MiB by Python driver.
gradient() will perform analytic gradient computation.

*** tstart() called on FACC02D75Y4MD6T.tld
*** at Sun Sep 20 10:42:39 2020

   => Loading Basis Set <=

    Name: 6-31G(D_P)
    Role: ORBITAL
    Keyword: BASIS
    atoms 1    entry N          line   132 file /Users/blais.ch/anaconda3/envs/rmg_env/share/psi4/basis/6-31g_d_p_.gbs 
    atoms 2, 4 entry O          line   149 file /Users/blais.ch/anaconda3/envs/rmg_env/share/psi4/basis/6-31g_d_p_.gbs 
    atoms 3    entry H          line    44 file /Users/blais.ch/anaconda3/envs/rmg_env/share/psi4/basis/6-31g_d_p_.gbs 


         ---------------------------------------------------------
                                   SCF
               by Justin Turney, Rob Parrish, Andy Simmonett
                          and Daniel G. A. Smith
                              UKS Reference
                        1 Threads,    976 MiB Core
         ---------------------------------------------------------

  ==> Geometry <==

    Molecular point group: cs
    Full point group: Cs

    Geometry (in Angstrom), charge = 0, multiplicity = 1:

       Center              X                  Y                   Z               Mass       
    ------------   -----------------  -----------------  -----------------  -----------------
         N           -0.332598283140    -0.351257894649     0.000000000000    14.003074004430
         O            1.147401716860    -0.351257894649     0.000000000000    15.994914619570
         H            1.672401716860    -1.260584564649     0.000000000000     1.007825032230
         O           -0.961598283140     0.738202065351     0.000000000000    15.994914619570

           N
              BASIS           6-31G(D_P)           be17c05ec1461ad3097843c20da1040adf86ba79
           O
              BASIS           6-31G(D_P)           ec2d227169b1af6c6a69bc8715bab79dbd7bb644
           H
              BASIS           6-31G(D_P)           902186d0f3205710946c2c15d2c68458d6f6cc2a
           O
              BASIS           6-31G(D_P)           ec2d227169b1af6c6a69bc8715bab79dbd7bb644

  Running in cs symmetry.

  Rotational constants: A =      3.64767  B =      0.33978  C =      0.31083 [cm^-1]
  Rotational constants: A = 109354.40366  B =  10186.37375  C =   9318.36693 [MHz]
  Nuclear repulsion =   64.841292237313425

  Charge       = 0
  Multiplicity = 1
  Electrons    = 24
  Nalpha       = 12
  Nbeta        = 12

  ==> Algorithm <==

  SCF Algorithm Type is DIRECT.
  DIIS enabled.
  MOM disabled.
  Fractional occupation disabled.
  Guess Type is SAD.
  Energy threshold   = 1.00e-08
  Density threshold  = 1.00e-08
  Integral threshold = 0.00e+00

  ==> Primary Basis <==

  -AO BASIS SET INFORMATION:
    Name                   = 6-31G(D_P)
    Blend                  = 6-31G(D_P)
    Total number of shells = 21
    Number of primitives   = 50
    Number of AO           = 50
    Number of SO           = 50
    Maximum AM             = 2
    Spherical Harmonics    = FALSE

  -Contraction Scheme:
    Atom   Type   All Primitives // Shells:
   ------ ------ --------------------------
       1     N     10s 4p 1d // 3s 2p 1d 
       2     O     10s 4p 1d // 3s 2p 1d 
       3     H     4s 1p // 2s 1p 
       4     O     10s 4p 1d // 3s 2p 1d 

  ==> AO Basis Functions <==

    [ 6-31G(D_P) ]
    cartesian
    ****
    N   1
    S   6 1.00
                      4173.51100000           0.00183480
                       627.45790000           0.01399500
                       142.90210000           0.06858700
                        40.23433000           0.23224100
                        12.82021000           0.46907000
                         4.39043700           0.36045500
    S   3 1.00
                        11.62635800          -0.11496100
                         2.71628000          -0.16911800
                         0.77221800           1.14585200
    P   3 1.00
                        11.62635800           0.06758000
                         2.71628000           0.32390700
                         0.77221800           0.74089500
    S   1 1.00
                         0.21203130           1.00000000
    P   1 1.00
                         0.21203130           1.00000000
    D   1 1.00
                         0.80000000           1.00000000
    ****
    O   2
    S   6 1.00
                      5484.67170000           0.00183110
                       825.23495000           0.01395010
                       188.04696000           0.06844510
                        52.96450000           0.23271430
                        16.89757000           0.47019300
                         5.79963530           0.35852090
    S   3 1.00
                        15.53961600          -0.11077750
                         3.59993360          -0.14802630
                         1.01376180           1.13076700
    P   3 1.00
                        15.53961600           0.07087430
                         3.59993360           0.33975280
                         1.01376180           0.72715860
    S   1 1.00
                         0.27000580           1.00000000
    P   1 1.00
                         0.27000580           1.00000000
    D   1 1.00
                         0.80000000           1.00000000
    ****
    H   3
    S   3 1.00
                        18.73113700           0.03349460
                         2.82539370           0.23472695
                         0.64012170           0.81375733
    S   1 1.00
                         0.16127780           1.00000000
    P   1 1.00
                         1.10000000           1.00000000
    ****
    O   4
    S   6 1.00
                      5484.67170000           0.00183110
                       825.23495000           0.01395010
                       188.04696000           0.06844510
                        52.96450000           0.23271430
                        16.89757000           0.47019300
                         5.79963530           0.35852090
    S   3 1.00
                        15.53961600          -0.11077750
                         3.59993360          -0.14802630
                         1.01376180           1.13076700
    P   3 1.00
                        15.53961600           0.07087430
                         3.59993360           0.33975280
                         1.01376180           0.72715860
    S   1 1.00
                         0.27000580           1.00000000
    P   1 1.00
                         0.27000580           1.00000000
    D   1 1.00
                         0.80000000           1.00000000
    ****

  ==> DFT Potential <==

   => Composite Functional: B3LYP <= 

    B3LYP Hyb-GGA Exchange-Correlation Functional

    P. J. Stephens, F. J. Devlin, C. F. Chabalowski, and M. J. Frisch, J. Phys. Chem. 98, 11623 (1994)

    Deriv               =              1
    GGA                 =           TRUE
    Meta                =          FALSE

    Exchange Hybrid     =           TRUE
    MP2 Hybrid          =          FALSE

   => Exchange Functionals <=

    0.0800   Slater exchange
    0.7200         Becke 88

   => Exact (HF) Exchange <=

    0.2000               HF 

   => Correlation Functionals <=

    0.1900   Vosko, Wilk & Nusair (VWN5_RPA)
    0.8100   Lee, Yang & Parr

   => XC_HYB_GGA_XC_B3LYP Functional <=

    B3LYP
    P. J. Stephens, F. J. Devlin, C. F. Chabalowski, and M. J. Frisch, J. Phys. Chem. 98, 11623 (1994)
    GGA   =           TRUE
    Meta  =          FALSE
    LRC   =          FALSE
    Alpha =   1.000000E+00
    Omega =   0.000000E+00

    > Parameters <


   => Molecular Quadrature <=

    Radial Scheme          =       TREUTLER
    Pruning Scheme         =           FLAT
    Nuclear Scheme         =       TREUTLER

    BS radius alpha        =              1
    Pruning alpha          =              1
    Radial Points          =             75
    Spherical Points       =            302
    Total Points           =          86373
    Total Blocks           =            719
    Max Points             =            256
    Max Functions          =             50

   => Loading Basis Set <=

    Name: (6-31G(D_P) AUX)
    Role: JKFIT
    Keyword: DF_BASIS_SCF
    atoms 1    entry N          line   171 file /Users/blais.ch/anaconda3/envs/rmg_env/share/psi4/basis/cc-pvdz-jkfit.gbs 
    atoms 2, 4 entry O          line   221 file /Users/blais.ch/anaconda3/envs/rmg_env/share/psi4/basis/cc-pvdz-jkfit.gbs 
    atoms 3    entry H          line    51 file /Users/blais.ch/anaconda3/envs/rmg_env/share/psi4/basis/cc-pvdz-jkfit.gbs 

  Starting with a DF guess...

  ==> Pre-Iterations <==

   -------------------------------------------------------
    Irrep   Nso     Nmo     Nalpha   Nbeta   Ndocc  Nsocc
   -------------------------------------------------------
     A'        37      37       0       0       0       0
     A"        13      13       0       0       0       0
   -------------------------------------------------------
    Total      50      50      12      12      12       0
   -------------------------------------------------------

  ==> Integral Setup <==

  DFHelper Memory: AOs need 0.006 GiB; user supplied 0.605 GiB. Using in-core AOs.

  ==> MemDFJK: Density-Fitted J/K Matrices <==

    J tasked:                   Yes
    K tasked:                   Yes
    wK tasked:                   No
    OpenMP threads:               1
    Memory [MiB]:               619
    Algorithm:                 Core
    Schwarz Cutoff:           1E-12
    Mask sparsity (%):       0.3200
    Fitting Condition:        1E-10

   => Auxiliary Basis Set <=

  -AO BASIS SET INFORMATION:
    Name                   = (6-31G(D_P) AUX)
    Blend                  = CC-PVDZ-JKFIT
    Total number of shells = 81
    Number of primitives   = 81
    Number of AO           = 268
    Number of SO           = 268
    Maximum AM             = 3
    Spherical Harmonics    = FALSE

  -Contraction Scheme:
    Atom   Type   All Primitives // Shells:
   ------ ------ --------------------------
       1     N     10s 7p 5d 2f // 10s 7p 5d 2f 
       2     O     10s 7p 5d 2f // 10s 7p 5d 2f 
       3     H     4s 3p 2d // 4s 3p 2d 
       4     O     10s 7p 5d 2f // 10s 7p 5d 2f 

  ==> AO Basis Functions <==

    [ (6-31G(D_P) AUX) ]
    cartesian
    ****
    N   1
    S   1 1.00
                      1102.86224530           1.00000000
    S   1 1.00
                       370.98041153           1.00000000
    S   1 1.00
                       136.73555938           1.00000000
    S   1 1.00
                        50.75587192           1.00000000
    S   1 1.00
                        20.53565610           1.00000000
    S   1 1.00
                         7.83187372           1.00000000
    S   1 1.00
                         3.47840639           1.00000000
    S   1 1.00
                         1.45528566           1.00000000
    S   1 1.00
                         0.63068989           1.00000000
    S   1 1.00
                         0.27276596           1.00000000
    P   1 1.00
                        93.54095407           1.00000000
    P   1 1.00
                        29.52401953           1.00000000
    P   1 1.00
                        10.91750299           1.00000000
    P   1 1.00
                         4.34492890           1.00000000
    P   1 1.00
                         1.82169126           1.00000000
    P   1 1.00
                         0.75792424           1.00000000
    P   1 1.00
                         0.28241469           1.00000000
    D   1 1.00
                        16.41937893           1.00000000
    D   1 1.00
                         5.01040494           1.00000000
    D   1 1.00
                         1.97939719           1.00000000
    D   1 1.00
                         0.78495772           1.00000000
    D   1 1.00
                         0.28954066           1.00000000
    F   1 1.00
                         1.79354240           1.00000000
    F   1 1.00
                         0.60854240           1.00000000
    ****
    O   2
    S   1 1.00
                      1517.86675060           1.00000000
    S   1 1.00
                       489.67952008           1.00000000
    S   1 1.00
                       176.72118665           1.00000000
    S   1 1.00
                        63.79223314           1.00000000
    S   1 1.00
                        25.36649913           1.00000000
    S   1 1.00
                         9.91354912           1.00000000
    S   1 1.00
                         4.46453066           1.00000000
    S   1 1.00
                         1.80177437           1.00000000
    S   1 1.00
                         0.80789711           1.00000000
    S   1 1.00
                         0.33864327           1.00000000
    P   1 1.00
                       120.16030921           1.00000000
    P   1 1.00
                        34.40962247           1.00000000
    P   1 1.00
                        12.58114861           1.00000000
    P   1 1.00
                         5.06638242           1.00000000
    P   1 1.00
                         2.03469271           1.00000000
    P   1 1.00
                         0.86092967           1.00000000
    P   1 1.00
                         0.36681357           1.00000000
    D   1 1.00
                        19.04306281           1.00000000
    D   1 1.00
                         5.80603811           1.00000000
    D   1 1.00
                         2.18918416           1.00000000
    D   1 1.00
                         0.87794614           1.00000000
    D   1 1.00
                         0.35623647           1.00000000
    F   1 1.00
                         2.49391479           1.00000000
    F   1 1.00
                         0.82491479           1.00000000
    ****
    H   3
    S   1 1.00
                         9.53024933           1.00000000
    S   1 1.00
                         1.91745062           1.00000000
    S   1 1.00
                         0.68424049           1.00000000
    S   1 1.00
                         0.28413256           1.00000000
    P   1 1.00
                         2.91332320           1.00000000
    P   1 1.00
                         1.26212054           1.00000000
    P   1 1.00
                         0.50199776           1.00000000
    D   1 1.00
                         2.31353291           1.00000000
    D   1 1.00
                         0.71290724           1.00000000
    ****
    O   4
    S   1 1.00
                      1517.86675060           1.00000000
    S   1 1.00
                       489.67952008           1.00000000
    S   1 1.00
                       176.72118665           1.00000000
    S   1 1.00
                        63.79223314           1.00000000
    S   1 1.00
                        25.36649913           1.00000000
    S   1 1.00
                         9.91354912           1.00000000
    S   1 1.00
                         4.46453066           1.00000000
    S   1 1.00
                         1.80177437           1.00000000
    S   1 1.00
                         0.80789711           1.00000000
    S   1 1.00
                         0.33864327           1.00000000
    P   1 1.00
                       120.16030921           1.00000000
    P   1 1.00
                        34.40962247           1.00000000
    P   1 1.00
                        12.58114861           1.00000000
    P   1 1.00
                         5.06638242           1.00000000
    P   1 1.00
                         2.03469271           1.00000000
    P   1 1.00
                         0.86092967           1.00000000
    P   1 1.00
                         0.36681357           1.00000000
    D   1 1.00
                        19.04306281           1.00000000
    D   1 1.00
                         5.80603811           1.00000000
    D   1 1.00
                         2.18918416           1.00000000
    D   1 1.00
                         0.87794614           1.00000000
    D   1 1.00
                         0.35623647           1.00000000
    F   1 1.00
                         2.49391479           1.00000000
    F   1 1.00
                         0.82491479           1.00000000
    ****

  Cached 100.0% of DFT collocation blocks in 0.110 [GiB].

  Minimum eigenvalue in the overlap matrix is 6.6010820456E-03.
  Using Symmetric Orthogonalization.

  SCF Guess: Superposition of Atomic Densities via on-the-fly atomic UHF.

DIIS coefficients:  1.000 
DIIS coefficients:  0.279  0.721 
DIIS coefficients:  -0.018  0.036  0.982 
DIIS coefficients:  -0.000  -0.002  -0.067  1.070 
DIIS coefficients:  -0.000  0.000  0.009  -0.178  1.168 
DIIS coefficients:  0.000  -0.000  -0.000  0.006  -0.045  1.039 
DIIS coefficients:  1.000 
DIIS coefficients:  0.329  0.671 
DIIS coefficients:  -0.027  -0.001  1.028 
DIIS coefficients:  -0.002  -0.000  -0.045  1.047 
DIIS coefficients:  0.000  0.000  0.005  -0.173  1.168 
DIIS coefficients:  0.000  -0.000  -0.001  0.017  -0.113  1.097 
DIIS coefficients:  1.000 
DIIS coefficients:  -0.068  1.068 
DIIS coefficients:  -0.000  -0.002  1.002 
DIIS coefficients:  -0.000  -0.000  -0.001  1.001 
  ==> Iterations <==

                           Total Energy        Delta E     RMS |[F,P]|

   @DF-UKS iter SAD:  -204.99738067581893   -2.04997e+02   0.00000e+00 
DIIS coefficients:  1.000 
    Occupation by irrep:
             Ap   App 
    DOCC [    10,    2 ]
    SOCC [     0,    0 ]

   @DF-UKS iter   1:  -205.54719196983473   -5.49811e-01   1.45382e-02 DIIS
DIIS coefficients:  0.672  0.328 
    Occupation by irrep:
             Ap   App 
    DOCC [    10,    2 ]
    SOCC [     0,    0 ]

   @DF-UKS iter   2:  -205.19128913579334    3.55903e-01   2.87775e-02 DIIS
DIIS coefficients:  0.272  0.177  0.552 
    Occupation by irrep:
             Ap   App 
    DOCC [    10,    2 ]
    SOCC [     0,    0 ]

   @DF-UKS iter   3:  -205.65282327732979   -4.61534e-01   4.19457e-03 DIIS
DIIS coefficients:  0.086  0.060  0.269  0.585 
    Occupation by irrep:
             Ap   App 
    DOCC [    10,    2 ]
    SOCC [     0,    0 ]

   @DF-UKS iter   4:  -205.66407580684771   -1.12525e-02   1.06064e-03 DIIS
DIIS coefficients:  0.024  0.018  0.123  0.510  0.325 
    Occupation by irrep:
             Ap   App 
    DOCC [    10,    2 ]
    SOCC [     0,    0 ]

   @DF-UKS iter   5:  -205.66385575814658    2.20049e-04   1.19214e-03 DIIS
DIIS coefficients:  -0.001  -0.001  0.014  0.117  0.110  0.761 
    Occupation by irrep:
             Ap   App 
    DOCC [    10,    2 ]
    SOCC [     0,    0 ]

   @DF-UKS iter   6:  -205.66475025244927   -8.94494e-04   8.82620e-05 DIIS
DIIS coefficients:  -0.000  -0.000  0.001  0.015  0.014  0.103  0.867 
    Occupation by irrep:
             Ap   App 
    DOCC [    10,    2 ]
    SOCC [     0,    0 ]

   @DF-UKS iter   7:  -205.66475493656452   -4.68412e-06   9.01652e-06 DIIS
DIIS coefficients:  0.000  -0.000  -0.000  -0.004  -0.003  -0.030  0.103  0.934 
    Occupation by irrep:
             Ap   App 
    DOCC [    10,    2 ]
    SOCC [     0,    0 ]

   @DF-UKS iter   8:  -205.66475499201454   -5.54500e-08   2.50913e-06 DIIS
DIIS coefficients:  -0.000  0.000  -0.000  -0.001  -0.000  -0.004  -0.017  0.033  0.990 
    Occupation by irrep:
             Ap   App 
    DOCC [    10,    2 ]
    SOCC [     0,    0 ]

   @DF-UKS iter   9:  -205.66475499684165   -4.82711e-09   3.89041e-07 DIIS
DIIS coefficients:  -0.000  0.000  0.000  0.000  0.000  0.000  -0.006  -0.034  0.090  0.949 
    Occupation by irrep:
             Ap   App 
    DOCC [    10,    2 ]
    SOCC [     0,    0 ]

   @DF-UKS iter  10:  -205.66475499698430   -1.42649e-10   7.17865e-08 DIIS
DIIS coefficients:  -0.000  0.910  0.000  0.000  0.000  0.000  -0.000  -0.003  -0.006  0.099 
    Occupation by irrep:
             Ap   App 
    DOCC [    10,    2 ]
    SOCC [     0,    0 ]

   @DF-UKS iter  11:  -205.66475499698862   -4.32010e-12   5.91630e-09 DIIS

  DF guess converged.

  ==> DirectJK: Integral-Direct J/K Matrices <==

    J tasked:                  Yes
    K tasked:                  Yes
    wK tasked:                  No
    Integrals threads:           1
    Schwarz Cutoff:          1E-12

DIIS coefficients:  1.000 
    Occupation by irrep:
             Ap   App 
    DOCC [    10,    2 ]
    SOCC [     0,    0 ]

   @UKS iter  12:  -205.66478750387779   -2.05665e+02   1.17079e-05 DIIS
DIIS coefficients:  0.044  0.956 
    Occupation by irrep:
             Ap   App 
    DOCC [    10,    2 ]
    SOCC [     0,    0 ]

   @UKS iter  13:  -205.66478760451412   -1.00636e-07   2.84016e-06 DIIS
DIIS coefficients:  -0.020  0.745  0.275 
    Occupation by irrep:
             Ap   App 
    DOCC [    10,    2 ]
    SOCC [     0,    0 ]

   @UKS iter  14:  -205.66478757867344    2.58407e-08   7.36617e-06 DIIS
DIIS coefficients:  -0.016  0.345  0.145  0.526 
    Occupation by irrep:
             Ap   App 
    DOCC [    10,    2 ]
    SOCC [     0,    0 ]

   @UKS iter  15:  -205.66478760957642   -3.09030e-08   8.81665e-07 DIIS
DIIS coefficients:  -0.008  0.136  0.058  0.427  0.388 
    Occupation by irrep:
             Ap   App 
    DOCC [    10,    2 ]
    SOCC [     0,    0 ]

   @UKS iter  16:  -205.66478760977947   -2.03045e-10   7.11528e-07 DIIS
DIIS coefficients:  -0.002  0.011  0.002  0.124  0.140  0.724 
    Occupation by irrep:
             Ap   App 
    DOCC [    10,    2 ]
    SOCC [     0,    0 ]

   @UKS iter  17:  -205.66478761010021   -3.20739e-10   9.23538e-08 DIIS
DIIS coefficients:  0.001  -0.017  -0.009  -0.028  -0.014  0.181  0.885 
    Occupation by irrep:
             Ap   App 
    DOCC [    10,    2 ]
    SOCC [     0,    0 ]

   @UKS iter  18:  -205.66478761010657   -6.36646e-12   2.25349e-08 DIIS
DIIS coefficients:  0.000  -0.001  -0.000  -0.003  -0.003  -0.011  0.011  1.007 
    Occupation by irrep:
             Ap   App 
    DOCC [    10,    2 ]
    SOCC [     0,    0 ]

   @UKS iter  19:  -205.66478761010725   -6.82121e-13   1.70622e-09 DIIS
  Energy and wave function converged.


  ==> Post-Iterations <==

   @Spin Contamination Metric:   1.243449788E-14
   @S^2 Expected:                0.000000000E+00
   @S^2 Observed:                1.243449788E-14
   @S   Expected:                0.000000000E+00
   @S   Observed:                0.000000000E+00

    Orbital Energies [Eh]
    ---------------------

    Alpha Occupied:                                                       

       1Ap   -19.246417     2Ap   -19.222598     3Ap   -14.531835  
       4Ap    -1.163506     5Ap    -1.027214     6Ap    -0.703469  
       7Ap    -0.550573     8Ap    -0.481043     1App   -0.472075  
       9Ap    -0.396856     2App   -0.344106    10Ap    -0.277090  

    Alpha Virtual:                                                        

       3App   -0.108379    11Ap    -0.003610    12Ap     0.091389  
      13Ap     0.258061    14Ap     0.592147    15Ap     0.632168  
       4App    0.658778    16Ap     0.675377    17Ap     0.759689  
      18Ap     0.823920     5App    0.886333    19Ap     0.903259  
      20Ap     0.923417     6App    0.930991    21Ap     1.104006  
      22Ap     1.235794    23Ap     1.321850     7App    1.355407  
       8App    1.451582    24Ap     1.534668     9App    1.616223  
      25Ap     1.667534    10App    1.788273    26Ap     1.800887  
      27Ap     1.951135    28Ap     2.099010    11App    2.195290  
      29Ap     2.246544    30Ap     2.401129    12App    2.500334  
      13App    2.522847    31Ap     2.649049    32Ap     2.820568  
      33Ap     2.840137    34Ap     3.235640    35Ap     3.384753  
      36Ap     3.589688    37Ap     3.765655  

    Beta Occupied:                                                        

       1Ap   -19.246417     2Ap   -19.222598     3Ap   -14.531835  
       4Ap    -1.163506     5Ap    -1.027214     6Ap    -0.703469  
       7Ap    -0.550573     8Ap    -0.481043     1App   -0.472075  
       9Ap    -0.396856     2App   -0.344106    10Ap    -0.277090  

    Beta Virtual:                                                         

       3App   -0.108379    11Ap    -0.003610    12Ap     0.091389  
      13Ap     0.258061    14Ap     0.592147    15Ap     0.632168  
       4App    0.658778    16Ap     0.675377    17Ap     0.759689  
      18Ap     0.823920     5App    0.886333    19Ap     0.903259  
      20Ap     0.923417     6App    0.930991    21Ap     1.104006  
      22Ap     1.235794    23Ap     1.321850     7App    1.355407  
       8App    1.451582    24Ap     1.534668     9App    1.616223  
      25Ap     1.667534    10App    1.788273    26Ap     1.800887  
      27Ap     1.951135    28Ap     2.099010    11App    2.195290  
      29Ap     2.246544    30Ap     2.401129    12App    2.500334  
      13App    2.522847    31Ap     2.649049    32Ap     2.820568  
      33Ap     2.840137    34Ap     3.235640    35Ap     3.384753  
      36Ap     3.589688    37Ap     3.765655  

    Final Occupation by Irrep:
             Ap   App 
    DOCC [    10,    2 ]
    SOCC [     0,    0 ]

  @UKS Final Energy:  -205.66478761010725

   => Energetics <=

    Nuclear Repulsion Energy =             64.8412922373134251
    One-Electron Energy =                -410.1293670054379277
    Two-Electron Energy =                 159.1769200350841800
    DFT Exchange-Correlation Energy =     -19.5536328770669350
    Empirical Dispersion Energy =           0.0000000000000000
    VV10 Nonlocal Energy =                  0.0000000000000000
    Total Energy =                       -205.6647876101072541

  UHF NO Occupations:
  HONO-2 :    8 Ap 2.0000000
  HONO-1 :    9 Ap 2.0000000
  HONO-0 :   10 Ap 2.0000000
  LUNO+0 :   11 Ap 0.0000000
  LUNO+1 :   12 Ap 0.0000000
  LUNO+2 :   13 Ap 0.0000000
  LUNO+3 :   14 Ap 0.0000000


Computation Completed


Properties will be evaluated at   0.000000,   0.000000,   0.000000 [a0]

Properties computed using the SCF density matrix

  Nuclear Dipole Moment: [e a0]
     X:     1.5697      Y:    -1.1789      Z:     0.0000

  Electronic Dipole Moment: [e a0]
     X:    -0.9674      Y:     0.4123      Z:     0.0000

  Dipole Moment: [e a0]
     X:     0.6023      Y:    -0.7666      Z:     0.0000     Total:     0.9749

  Dipole Moment: [D]
     X:     1.5308      Y:    -1.9486      Z:     0.0000     Total:     2.4779


*** tstop() called on FACC02D75Y4MD6T.tld at Sun Sep 20 10:42:43 2020
Module time:
	user time   =       3.90 seconds =       0.07 minutes
	system time =       0.10 seconds =       0.00 minutes
	total time  =          4 seconds =       0.07 minutes
Total time:
	user time   =       3.90 seconds =       0.07 minutes
	system time =       0.10 seconds =       0.00 minutes
	total time  =          4 seconds =       0.07 minutes

*** tstart() called on FACC02D75Y4MD6T.tld
*** at Sun Sep 20 10:42:43 2020


         ------------------------------------------------------------
                                   SCF GRAD                          
                          Rob Parrish, Justin Turney,                
                       Andy Simmonett, and Alex Sokolov              
         ------------------------------------------------------------

  ==> Geometry <==

    Molecular point group: cs
    Full point group: Cs

    Geometry (in Angstrom), charge = 0, multiplicity = 1:

       Center              X                  Y                   Z               Mass       
    ------------   -----------------  -----------------  -----------------  -----------------
         N           -0.332598283140    -0.351257894649     0.000000000000    14.003074004430
         O            1.147401716860    -0.351257894649     0.000000000000    15.994914619570
         H            1.672401716860    -1.260584564649     0.000000000000     1.007825032230
         O           -0.961598283140     0.738202065351     0.000000000000    15.994914619570

           N
              BASIS           6-31G(D_P)           be17c05ec1461ad3097843c20da1040adf86ba79
              DF_BASIS_SCF    (6-31G(D_P) AUX)     8eb73939244d0ff71e080d82475ea73ba87737d3
           O
              BASIS           6-31G(D_P)           ec2d227169b1af6c6a69bc8715bab79dbd7bb644
              DF_BASIS_SCF    (6-31G(D_P) AUX)     b57462463db1b385e39e4428a46364991bcd7673
           H
              BASIS           6-31G(D_P)           902186d0f3205710946c2c15d2c68458d6f6cc2a
              DF_BASIS_SCF    (6-31G(D_P) AUX)     1164366b470d7a66fddaf681ef9d1c28421b3e4a
           O
              BASIS           6-31G(D_P)           ec2d227169b1af6c6a69bc8715bab79dbd7bb644
              DF_BASIS_SCF    (6-31G(D_P) AUX)     b57462463db1b385e39e4428a46364991bcd7673

  Nuclear repulsion =   64.841292237313425

  ==> Basis Set <==

  -AO BASIS SET INFORMATION:
    Name                   = 6-31G(D_P)
    Blend                  = 6-31G(D_P)
    Total number of shells = 21
    Number of primitives   = 50
    Number of AO           = 50
    Number of SO           = 50
    Maximum AM             = 2
    Spherical Harmonics    = FALSE

  -Contraction Scheme:
    Atom   Type   All Primitives // Shells:
   ------ ------ --------------------------
       1     N     10s 4p 1d // 3s 2p 1d 
       2     O     10s 4p 1d // 3s 2p 1d 
       3     H     4s 1p // 2s 1p 
       4     O     10s 4p 1d // 3s 2p 1d 

  ==> AO Basis Functions <==

    [ 6-31G(D_P) ]
    cartesian
    ****
    N   1
    S   6 1.00
                      4173.51100000           0.00183480
                       627.45790000           0.01399500
                       142.90210000           0.06858700
                        40.23433000           0.23224100
                        12.82021000           0.46907000
                         4.39043700           0.36045500
    S   3 1.00
                        11.62635800          -0.11496100
                         2.71628000          -0.16911800
                         0.77221800           1.14585200
    P   3 1.00
                        11.62635800           0.06758000
                         2.71628000           0.32390700
                         0.77221800           0.74089500
    S   1 1.00
                         0.21203130           1.00000000
    P   1 1.00
                         0.21203130           1.00000000
    D   1 1.00
                         0.80000000           1.00000000
    ****
    O   2
    S   6 1.00
                      5484.67170000           0.00183110
                       825.23495000           0.01395010
                       188.04696000           0.06844510
                        52.96450000           0.23271430
                        16.89757000           0.47019300
                         5.79963530           0.35852090
    S   3 1.00
                        15.53961600          -0.11077750
                         3.59993360          -0.14802630
                         1.01376180           1.13076700
    P   3 1.00
                        15.53961600           0.07087430
                         3.59993360           0.33975280
                         1.01376180           0.72715860
    S   1 1.00
                         0.27000580           1.00000000
    P   1 1.00
                         0.27000580           1.00000000
    D   1 1.00
                         0.80000000           1.00000000
    ****
    H   3
    S   3 1.00
                        18.73113700           0.03349460
                         2.82539370           0.23472695
                         0.64012170           0.81375733
    S   1 1.00
                         0.16127780           1.00000000
    P   1 1.00
                         1.10000000           1.00000000
    ****
    O   4
    S   6 1.00
                      5484.67170000           0.00183110
                       825.23495000           0.01395010
                       188.04696000           0.06844510
                        52.96450000           0.23271430
                        16.89757000           0.47019300
                         5.79963530           0.35852090
    S   3 1.00
                        15.53961600          -0.11077750
                         3.59993360          -0.14802630
                         1.01376180           1.13076700
    P   3 1.00
                        15.53961600           0.07087430
                         3.59993360           0.33975280
                         1.01376180           0.72715860
    S   1 1.00
                         0.27000580           1.00000000
    P   1 1.00
                         0.27000580           1.00000000
    D   1 1.00
                         0.80000000           1.00000000
    ****

  ==> DirectJKGrad: Integral-Direct SCF Gradients <==

    Gradient:                    1
    J tasked:                  Yes
    K tasked:                  Yes
    wK tasked:                  No
    Integrals threads:           1
    Schwarz Cutoff:          0E+00

  ==> DFT Potential <==

   => Composite Functional: B3LYP <= 

    B3LYP Hyb-GGA Exchange-Correlation Functional

    P. J. Stephens, F. J. Devlin, C. F. Chabalowski, and M. J. Frisch, J. Phys. Chem. 98, 11623 (1994)

    Deriv               =              1
    GGA                 =           TRUE
    Meta                =          FALSE

    Exchange Hybrid     =           TRUE
    MP2 Hybrid          =          FALSE

   => Exchange Functionals <=

    0.0800   Slater exchange
    0.7200         Becke 88

   => Exact (HF) Exchange <=

    0.2000               HF 

   => Correlation Functionals <=

    0.1900   Vosko, Wilk & Nusair (VWN5_RPA)
    0.8100   Lee, Yang & Parr

   => XC_HYB_GGA_XC_B3LYP Functional <=

    B3LYP
    P. J. Stephens, F. J. Devlin, C. F. Chabalowski, and M. J. Frisch, J. Phys. Chem. 98, 11623 (1994)
    GGA   =           TRUE
    Meta  =          FALSE
    LRC   =          FALSE
    Alpha =   1.000000E+00
    Omega =   0.000000E+00

    > Parameters <


   => Molecular Quadrature <=

    Radial Scheme          =       TREUTLER
    Pruning Scheme         =           FLAT
    Nuclear Scheme         =       TREUTLER

    BS radius alpha        =              1
    Pruning alpha          =              1
    Radial Points          =             75
    Spherical Points       =            302
    Total Points           =          86373
    Total Blocks           =            719
    Max Points             =            256
    Max Functions          =             50


  -Nuclear Gradient:
     Atom            X                  Y                   Z
    ------   -----------------  -----------------  -----------------
       1        2.573062678980     8.414388131529     0.000000000000
       2       -8.969057155760    -0.299983642108     0.000000000000
       3       -1.547518115002     2.050627855450     0.000000000000
       4        7.943512591781   -10.165032344871     0.000000000000


  -Core Hamiltonian Gradient:
     Atom            X                  Y                   Z
    ------   -----------------  -----------------  -----------------
       1       -2.678897096753   -18.894787957591     0.000000000000
       2       16.452610858344     0.935711340667     0.000000000000
       3        4.292139478735    -5.250480842723     0.000000000000
       4      -18.065853240324    23.209557459644     0.000000000000


  -Overlap Gradient:
     Atom            X                  Y                   Z
    ------   -----------------  -----------------  -----------------
       1       -0.061212977929     0.367204904862    -0.000000000000
       2       -0.032818057245    -0.191190116084    -0.000000000000
       3       -0.140365989346     0.205169878809    -0.000000000000
       4        0.234397024519    -0.381184667587    -0.000000000000


  -Coulomb Gradient:
     Atom            X                  Y                   Z
    ------   -----------------  -----------------  -----------------
       1        0.071122567211    10.539094829307     0.000000000000
       2       -7.454934413172    -0.667096210642     0.000000000000
       3       -2.749604229379     3.222592867807     0.000000000000
       4       10.133416075340   -13.094591486472     0.000000000000


  -Exchange Gradient:
     Atom            X                  Y                   Z
    ------   -----------------  -----------------  -----------------
       1        0.037720208360    -0.121800790975    -0.000000000000
       2        0.001391474569     0.051724205642    -0.000000000000
       3        0.052773847951    -0.068206448042    -0.000000000000
       4       -0.091885530879     0.138283033375    -0.000000000000


  -XC Gradient:
     Atom            X                  Y                   Z
    ------   -----------------  -----------------  -----------------
       1        0.115046940186    -0.334870899493     0.000000000000
       2       -0.013712876478     0.153400047548     0.000000000000
       3        0.146741410791    -0.196177974777    -0.000000000000
       4       -0.248102134429     0.377651865720     0.000000000000


  -Total Gradient:
     Atom            X                  Y                   Z
    ------   -----------------  -----------------  -----------------
       1        0.056842320055    -0.030771782361     0.000000000000
       2       -0.016520169742    -0.017434374977     0.000000000000
       3        0.054166403750    -0.036474663476     0.000000000000
       4       -0.094515213993     0.084683859809     0.000000000000


*** tstop() called on FACC02D75Y4MD6T.tld at Sun Sep 20 10:42:43 2020
Module time:
	user time   =       0.81 seconds =       0.01 minutes
	system time =       0.02 seconds =       0.00 minutes
	total time  =          0 seconds =       0.00 minutes
Total time:
	user time   =       4.71 seconds =       0.08 minutes
	system time =       0.12 seconds =       0.00 minutes
	total time  =          4 seconds =       0.07 minutes

			-----------------------------------------
			 OPTKING 2.0: for geometry optimizations 
			  - R.A. King,  Bethel University        
			-----------------------------------------
dynamic level          =                  0
conv_max_force         =           3.00e-04
conv_rms_force         =           0.00e+00
conv_max_DE            =           1.00e-06
conv_max_disp          =           1.20e-03
conv_rms_disp          =           0.00e+00
SD Hessian             =           1.00e+00
scale_connectivity     =           1.30e+00
interfragment_scale_connectivity =           1.80e+00
fragment_mode          =             single
interfragment_mode        =              fixed
intcos_generate_exit   =              false
print_params           =              false
print_lvl              = 3
ensure_bt_convergence =             false
rfo_follow_root        =              false
rfo_root               =                  0
rfo_normalization_max  =           1.00e+02
rsrfo_alpha_max        =          1.000e+08
step_type              =                RFO
opt. coordinates       = Redundant Internals
linesearch_static_N    =                  8
linesearch_static_min  =          1.000e-03
linesearch_static_max  =          1.000e-01
consecutive_backsteps  =                  0
intrafragment_H        =           Schlegel
interfragment_H        =            Default
H_update               =               BFGS
H_update_use_last      =                  2
freeze_intrafragment   =              false
intrafragment_step_limit=          5.00e-01
interfragment_step_limit=          5.00e-01
add_auxiliary_bonds   =               true
H_guess_every         =              false
auxiliary_bond_factor =          2.50e+00
H_update_limit         =               true
H_update_limit_scale   =           5.00e-01
H_update_limit_max     =           1.00e+00
H_update_den_tol       =           1.00e-07
interfragment_distance_inverse=       false
write_final_step_geometry=            false
maximum_H_bond_distance=           4.30e+00
read_cartesian_H       =              false
fb_fragments          =              false
fb_fragments_only     =              false
frozen_distance: 
frozen_bend: 
frozen_dihedral: 
frozen_cartesian: 
fixed_distance: 
fixed_bend: 
fixed_dihedral: 
print_trajectory_xyz_file =              false

	Internal coordinates to be generated automatically.
	Detected frag 1 with atoms:  1 2 3 4
	---Fragment 1 Bond Connectivity---
	 1 : 2 4
	 2 : 1 3
	 3 : 2
	 4 : 1

	---Fragment 1 Geometry and Gradient---
	 N          -0.6285196649       -0.6637812203        0.0000000000
	 O           2.1682750007       -0.6637812203        0.0000000000
	 H           3.1603812166       -2.3821595852        0.0000000000
	 O          -1.8171573978        1.3949997288        0.0000000000
	             0.0568423201       -0.0307717824        0.0000000000
	            -0.0165201697       -0.0174343750        0.0000000000
	             0.0541664038       -0.0364746635        0.0000000000
	            -0.0945152140        0.0846838598        0.0000000000

	Previous optimization step data not found.  Starting new optimization.

	---Fragment 1 Intrafragment Coordinates---
	 - Coordinate -           - BOHR/RAD -       - ANG/DEG -
	 R(1,2)           =         2.796795	       1.480000
	 R(1,4)           =         2.377275	       1.258000
	 R(2,3)           =         1.984212	       1.050000
	 B(1,2,3)         =         2.094395	     120.000000
	 B(2,1,4)         =         2.094395	     120.000000
	 D(3,2,1,4)       =         3.141593	     180.000000

	Current energy   :      -205.6647876101

B matrix
 -1.000000  0.000000  0.000000  1.000000  0.000000  0.000000  0.000000  0.000000
  0.000000  0.000000  0.000000  0.000000
  0.500000 -0.866025  0.000000  0.000000  0.000000  0.000000  0.000000  0.000000
  0.000000 -0.500000  0.866025  0.000000
  0.000000  0.000000  0.000000 -0.500000  0.866025  0.000000  0.500000 -0.866025
  0.000000  0.000000  0.000000  0.000000
  0.000000  0.357552  0.000000 -0.436458 -0.609541  0.000000  0.436458  0.251989
  0.000000  0.000000  0.000000  0.000000
  0.364293  0.567877  0.000000  0.000000 -0.357552  0.000000  0.000000  0.000000
  0.000000 -0.364293 -0.210325  0.000000
  0.000000  0.000000  0.485724  0.000000  0.000000  0.581944  0.000000  0.000000
 -0.581944  0.000000  0.000000 -0.485724
Internal forces in au
  -0.037656309486212  -0.120594077329006  -0.058677264479547  -0.056892823813476
  -0.093902671536598   0.000000000000000
	Generating empirical Hessian (Schlegel '84) for each fragment.
diagonal Hessian values for simple coordinates.
  0.345696  0.803496  0.398767  0.160000  0.250000  0.002300

Initial Hessian guess
  0.345696  0.000000  0.000000  0.000000  0.000000  0.000000
  0.000000  0.803496  0.000000  0.000000  0.000000  0.000000
  0.000000  0.000000  0.398767  0.000000  0.000000  0.000000
  0.000000  0.000000  0.000000  0.160000  0.000000  0.000000
  0.000000  0.000000  0.000000  0.000000  0.250000  0.000000
  0.000000  0.000000  0.000000  0.000000  0.000000  0.002300
	Projection matrix for redundancies.
  1.000000 -0.000000 -0.000000 -0.000000  0.000000  0.000000
 -0.000000  1.000000 -0.000000 -0.000000 -0.000000  0.000000
 -0.000000 -0.000000  1.000000 -0.000000 -0.000000  0.000000
 -0.000000 -0.000000 -0.000000  1.000000  0.000000  0.000000
  0.000000  0.000000  0.000000 -0.000000  1.000000  0.000000
  0.000000  0.000000  0.000000  0.000000  0.000000  1.000000
Constraint matrix
  0.000000  0.000000  0.000000  0.000000  0.000000  0.000000
  0.000000  0.000000  0.000000  0.000000  0.000000  0.000000
  0.000000  0.000000  0.000000  0.000000  0.000000  0.000000
  0.000000  0.000000  0.000000  0.000000  0.000000  0.000000
  0.000000  0.000000  0.000000  0.000000  0.000000  0.000000
  0.000000  0.000000  0.000000  0.000000  0.000000  0.000000
	Internal forces in au, after projection of redundancies and constraints.
 -0.037656 -0.120594 -0.058677 -0.056893 -0.093903  0.000000
Projected (PHP) Hessian matrix
  0.345696 -0.000000 -0.000000 -0.000000  0.000000  0.000000
 -0.000000  0.803496 -0.000000 -0.000000 -0.000000  0.000000
 -0.000000 -0.000000  0.398767 -0.000000 -0.000000  0.000000
 -0.000000 -0.000000 -0.000000  0.160000  0.000000  0.000000
  0.000000  0.000000 -0.000000 -0.000000  0.250000  0.000000
  0.000000  0.000000  0.000000  0.000000  0.000000  0.002300
	Taking RFO optimization step.
Eigenvalues of scaled RFO matrix.
 -0.069188  0.002300  0.169925  0.277051  0.349786  0.408491
  0.821894
First eigenvector (unnormalized) of scaled RFO matrix.
 -0.083160 -0.126611 -0.114886 -0.227441 -0.269547  0.000000  0.916226
	Going to follow RFO solution 1.
	Using RFO vector 1.
	rfo_root is 1

Scaled RFO eigenvalue 1:   -0.0691882809 (or 2*-0.0345941405  )
eigenvector:
 -0.090763 -0.138187 -0.125391 -0.248236 -0.294192  0.000000  1.000000

Projection of redundancies out of step:
	Original dq     Projected dq     Difference
	   -0.090763       -0.090763       0.000000
	   -0.138187       -0.138187       0.000000
	   -0.125391       -0.125391       0.000000
	   -0.248236       -0.248236       0.000000
	   -0.294192       -0.294192       0.000000
	    0.000000       -0.000000      -0.000000
dq:
 -0.090763 -0.138187 -0.125391 -0.248236 -0.294192 -0.000000
fq:
 -0.037656 -0.120594 -0.058677 -0.056893 -0.093903  0.000000
	lambda calculated by (dq^t).(-f)     =        -0.0691882809
	Analytic derivative d(norm)/d(alpha) =        -0.0714818086
	Final scaled step dq:
 -0.090763 -0.138187 -0.125391 -0.248236 -0.294192 -0.000000
	Norm of target step-size    0.43729
	Projected energy change by RFO approximation:        -0.0342263328

	Back-transformation to cartesian coordinates...
	 In displace_util 
	       Original         Target           Dq
	   2.7967946657   2.7060312154  -0.0907634503
	   2.3772754692   2.2390879696  -0.1381874995
	   1.9842124252   1.8588216349  -0.1253907904
	   2.0943951043   1.8461589223  -0.2482361820
	   2.0943951016   1.8002029988  -0.2941921028
	   3.1415926536   3.1415926536  -0.0000000000
	---------------------------------------------------
	 Iter        RMS(dx)        Max(dx)        RMS(dq) 
	---------------------------------------------------
	    1        1.8e-01        4.0e-01        1.9e-02
	    2        1.0e-02        1.8e-02        7.3e-05
	    3        7.8e-05        1.8e-04        3.6e-09
	    4        2.0e-09        3.9e-09        0.0e+00
	---------------------------------------------------

	Report of back-transformation:
	  int       q_target          Error
	-----------------------------------
	    1   2.7060312154  -0.0000000000
	    2   2.2390879696  -0.0000000000
	    3   1.8588216349  -0.0000000000
	    4   1.8461589223  -0.0000000000
	    5   1.8002029988  -0.0000000000
	    6   3.1415926536  -0.0000000000

	Successfully converged to displaced geometry.

	--- Internal Coordinate Step in ANG or DEG, aJ/ANG or AJ/DEG ---
	 ---------------------------------------------------------------------------
	   Coordinate                Previous        Force       Change         New 
	   ----------                --------       ------       ------       ------
	    1 R(1,2)          =      1.480000    -0.310240    -0.048030     1.431970
	    2 R(1,4)          =      1.258000    -0.993541    -0.073126     1.184874
	    3 R(2,3)          =      1.050000    -0.483426    -0.066354     0.983646
	    4 B(1,2,3)        =    120.000000    -0.004329   -14.222886   105.777115
	    5 B(2,1,4)        =    120.000000    -0.007145   -16.855966   103.144034
	    6 D(3,2,1,4)      =    180.000000     0.000000     0.000000   180.000000
	 ---------------------------------------------------------------------------
	Successfully symmetrized geometry.
Symmetrized geometry
 -0.604814 -0.862560  0.000000
  2.075236 -0.488478  0.000000
  2.823073 -2.190229  0.000000
 -1.410516  1.226545  0.000000

  ==> Convergence Check <==

  Measures of convergence in internal coordinates in au.
  Criteria marked as inactive (o), active & met (*), and active & unmet ( ).
  --------------------------------------------------------------------------------------------- ~
   Step     Total Energy     Delta E     MAX Force     RMS Force      MAX Disp      RMS Disp    ~
  --------------------------------------------------------------------------------------------- ~
    Convergence Criteria    1.00e-06 *    3.00e-04 *             o    1.20e-03 *             o  ~
  --------------------------------------------------------------------------------------------- ~
      1    -205.66478761   -2.06e+02      1.21e-01      7.24e-02 o    2.94e-01      1.79e-01 o  ~
  ---------------------------------------------------------------------------------------------

	Writing optimization data to binary file.
	Structure for next step:
	Cartesian Geometry (in Angstrom)
	    N    -0.3200536708  -0.4564470811   0.0000000000
	    O     1.0981676556  -0.2584913308   0.0000000000
	    H     1.4939057003  -1.1590194758   0.0000000000
	    O    -0.7464128236   0.6490596039   0.0000000000
			--------------------------
			 OPTKING Finished Execution 
			--------------------------

    Structure for next step:
    Molecular point group: cs
    Full point group: Cs

    Geometry (in Angstrom), charge = 0, multiplicity = 1:

    N           -0.376438943812    -0.428518900334     0.000000000000
    O            1.041782388105    -0.230563149279     0.000000000000
    H            1.437520434361    -1.131091297783     0.000000000000
    O           -0.802798098337     0.676987789056     0.000000000000

gradient() will perform analytic gradient computation.

*** tstart() called on FACC02D75Y4MD6T.tld
*** at Sun Sep 20 10:42:43 2020

   => Loading Basis Set <=

    Name: 6-31G(D_P)
    Role: ORBITAL
    Keyword: BASIS
    atoms 1    entry N          line   132 file /Users/blais.ch/anaconda3/envs/rmg_env/share/psi4/basis/6-31g_d_p_.gbs 
    atoms 2, 4 entry O          line   149 file /Users/blais.ch/anaconda3/envs/rmg_env/share/psi4/basis/6-31g_d_p_.gbs 
    atoms 3    entry H          line    44 file /Users/blais.ch/anaconda3/envs/rmg_env/share/psi4/basis/6-31g_d_p_.gbs 


         ---------------------------------------------------------
                                   SCF
               by Justin Turney, Rob Parrish, Andy Simmonett
                          and Daniel G. A. Smith
                              UKS Reference
                        1 Threads,    976 MiB Core
         ---------------------------------------------------------

  ==> Geometry <==

    Molecular point group: cs
    Full point group: Cs

    Geometry (in Angstrom), charge = 0, multiplicity = 1:

       Center              X                  Y                   Z               Mass       
    ------------   -----------------  -----------------  -----------------  -----------------
         N           -0.376438943812    -0.428518900334     0.000000000000    14.003074004430
         O            1.041782388105    -0.230563149279     0.000000000000    15.994914619570
         H            1.437520434361    -1.131091297783     0.000000000000     1.007825032230
         O           -0.802798098337     0.676987789056     0.000000000000    15.994914619570

           N
              BASIS           6-31G(D_P)           be17c05ec1461ad3097843c20da1040adf86ba79
              DF_BASIS_SCF    (6-31G(D_P) AUX)     8eb73939244d0ff71e080d82475ea73ba87737d3
           O
              BASIS           6-31G(D_P)           ec2d227169b1af6c6a69bc8715bab79dbd7bb644
              DF_BASIS_SCF    (6-31G(D_P) AUX)     b57462463db1b385e39e4428a46364991bcd7673
           H
              BASIS           6-31G(D_P)           902186d0f3205710946c2c15d2c68458d6f6cc2a
              DF_BASIS_SCF    (6-31G(D_P) AUX)     1164366b470d7a66fddaf681ef9d1c28421b3e4a
           O
              BASIS           6-31G(D_P)           ec2d227169b1af6c6a69bc8715bab79dbd7bb644
              DF_BASIS_SCF    (6-31G(D_P) AUX)     b57462463db1b385e39e4428a46364991bcd7673

  Running in cs symmetry.

  Rotational constants: A =      2.62116  B =      0.45140  C =      0.38508 [cm^-1]
  Rotational constants: A =  78580.48333  B =  13532.62846  C =  11544.50723 [MHz]
  Nuclear repulsion =   69.857632057034834

  Charge       = 0
  Multiplicity = 1
  Electrons    = 24
  Nalpha       = 12
  Nbeta        = 12

  ==> Algorithm <==

  SCF Algorithm Type is DIRECT.
  DIIS enabled.
  MOM disabled.
  Fractional occupation disabled.
  Guess Type is READ.
  Energy threshold   = 1.00e-08
  Density threshold  = 1.00e-08
  Integral threshold = 0.00e+00

  ==> Primary Basis <==

  -AO BASIS SET INFORMATION:
    Name                   = 6-31G(D_P)
    Blend                  = 6-31G(D_P)
    Total number of shells = 21
    Number of primitives   = 50
    Number of AO           = 50
    Number of SO           = 50
    Maximum AM             = 2
    Spherical Harmonics    = FALSE

  -Contraction Scheme:
    Atom   Type   All Primitives // Shells:
   ------ ------ --------------------------
       1     N     10s 4p 1d // 3s 2p 1d 
       2     O     10s 4p 1d // 3s 2p 1d 
       3     H     4s 1p // 2s 1p 
       4     O     10s 4p 1d // 3s 2p 1d 

  ==> AO Basis Functions <==

    [ 6-31G(D_P) ]
    cartesian
    ****
    N   1
    S   6 1.00
                      4173.51100000           0.00183480
                       627.45790000           0.01399500
                       142.90210000           0.06858700
                        40.23433000           0.23224100
                        12.82021000           0.46907000
                         4.39043700           0.36045500
    S   3 1.00
                        11.62635800          -0.11496100
                         2.71628000          -0.16911800
                         0.77221800           1.14585200
    P   3 1.00
                        11.62635800           0.06758000
                         2.71628000           0.32390700
                         0.77221800           0.74089500
    S   1 1.00
                         0.21203130           1.00000000
    P   1 1.00
                         0.21203130           1.00000000
    D   1 1.00
                         0.80000000           1.00000000
    ****
    O   2
    S   6 1.00
                      5484.67170000           0.00183110
                       825.23495000           0.01395010
                       188.04696000           0.06844510
                        52.96450000           0.23271430
                        16.89757000           0.47019300
                         5.79963530           0.35852090
    S   3 1.00
                        15.53961600          -0.11077750
                         3.59993360          -0.14802630
                         1.01376180           1.13076700
    P   3 1.00
                        15.53961600           0.07087430
                         3.59993360           0.33975280
                         1.01376180           0.72715860
    S   1 1.00
                         0.27000580           1.00000000
    P   1 1.00
                         0.27000580           1.00000000
    D   1 1.00
                         0.80000000           1.00000000
    ****
    H   3
    S   3 1.00
                        18.73113700           0.03349460
                         2.82539370           0.23472695
                         0.64012170           0.81375733
    S   1 1.00
                         0.16127780           1.00000000
    P   1 1.00
                         1.10000000           1.00000000
    ****
    O   4
    S   6 1.00
                      5484.67170000           0.00183110
                       825.23495000           0.01395010
                       188.04696000           0.06844510
                        52.96450000           0.23271430
                        16.89757000           0.47019300
                         5.79963530           0.35852090
    S   3 1.00
                        15.53961600          -0.11077750
                         3.59993360          -0.14802630
                         1.01376180           1.13076700
    P   3 1.00
                        15.53961600           0.07087430
                         3.59993360           0.33975280
                         1.01376180           0.72715860
    S   1 1.00
                         0.27000580           1.00000000
    P   1 1.00
                         0.27000580           1.00000000
    D   1 1.00
                         0.80000000           1.00000000
    ****

  ==> DFT Potential <==

   => Composite Functional: B3LYP <= 

    B3LYP Hyb-GGA Exchange-Correlation Functional

    P. J. Stephens, F. J. Devlin, C. F. Chabalowski, and M. J. Frisch, J. Phys. Chem. 98, 11623 (1994)

    Deriv               =              1
    GGA                 =           TRUE
    Meta                =          FALSE

    Exchange Hybrid     =           TRUE
    MP2 Hybrid          =          FALSE

   => Exchange Functionals <=

    0.0800   Slater exchange
    0.7200         Becke 88

   => Exact (HF) Exchange <=

    0.2000               HF 

   => Correlation Functionals <=

    0.1900   Vosko, Wilk & Nusair (VWN5_RPA)
    0.8100   Lee, Yang & Parr

   => XC_HYB_GGA_XC_B3LYP Functional <=

    B3LYP
    P. J. Stephens, F. J. Devlin, C. F. Chabalowski, and M. J. Frisch, J. Phys. Chem. 98, 11623 (1994)
    GGA   =           TRUE
    Meta  =          FALSE
    LRC   =          FALSE
    Alpha =   1.000000E+00
    Omega =   0.000000E+00

    > Parameters <


   => Molecular Quadrature <=

    Radial Scheme          =       TREUTLER
    Pruning Scheme         =           FLAT
    Nuclear Scheme         =       TREUTLER

    BS radius alpha        =              1
    Pruning alpha          =              1
    Radial Points          =             75
    Spherical Points       =            302
    Total Points           =          86328
    Total Blocks           =            716
    Max Points             =            256
    Max Functions          =             50

   => Loading Basis Set <=

    Name: (6-31G(D_P) AUX)
    Role: JKFIT
    Keyword: DF_BASIS_SCF
    atoms 1    entry N          line   171 file /Users/blais.ch/anaconda3/envs/rmg_env/share/psi4/basis/cc-pvdz-jkfit.gbs 
    atoms 2, 4 entry O          line   221 file /Users/blais.ch/anaconda3/envs/rmg_env/share/psi4/basis/cc-pvdz-jkfit.gbs 
    atoms 3    entry H          line    51 file /Users/blais.ch/anaconda3/envs/rmg_env/share/psi4/basis/cc-pvdz-jkfit.gbs 

   => Loading Basis Set <=

    Name: 6-31G(D_P)
    Role: ORBITAL
    Keyword: BASIS
    atoms 1    entry N          line   132 file /Users/blais.ch/anaconda3/envs/rmg_env/share/psi4/basis/6-31g_d_p_.gbs 
    atoms 2, 4 entry O          line   149 file /Users/blais.ch/anaconda3/envs/rmg_env/share/psi4/basis/6-31g_d_p_.gbs 
    atoms 3    entry H          line    44 file /Users/blais.ch/anaconda3/envs/rmg_env/share/psi4/basis/6-31g_d_p_.gbs 

  Reading orbitals from file 180, no projection.

  Starting with a DF guess...

  ==> Pre-Iterations <==

   -------------------------------------------------------
    Irrep   Nso     Nmo     Nalpha   Nbeta   Ndocc  Nsocc
   -------------------------------------------------------
     A'        37      37       0       0       0       0
     A"        13      13       0       0       0       0
   -------------------------------------------------------
    Total      50      50      12      12      12       0
   -------------------------------------------------------

  ==> Integral Setup <==

  DFHelper Memory: AOs need 0.006 GiB; user supplied 0.603 GiB. Using in-core AOs.

  ==> MemDFJK: Density-Fitted J/K Matrices <==

    J tasked:                   Yes
    K tasked:                   Yes
    wK tasked:                   No
    OpenMP threads:               1
    Memory [MiB]:               617
    Algorithm:                 Core
    Schwarz Cutoff:           1E-12
    Mask sparsity (%):       0.1600
    Fitting Condition:        1E-10

   => Auxiliary Basis Set <=

  -AO BASIS SET INFORMATION:
    Name                   = (6-31G(D_P) AUX)
    Blend                  = CC-PVDZ-JKFIT
    Total number of shells = 81
    Number of primitives   = 81
    Number of AO           = 268
    Number of SO           = 268
    Maximum AM             = 3
    Spherical Harmonics    = FALSE

  -Contraction Scheme:
    Atom   Type   All Primitives // Shells:
   ------ ------ --------------------------
       1     N     10s 7p 5d 2f // 10s 7p 5d 2f 
       2     O     10s 7p 5d 2f // 10s 7p 5d 2f 
       3     H     4s 3p 2d // 4s 3p 2d 
       4     O     10s 7p 5d 2f // 10s 7p 5d 2f 

  ==> AO Basis Functions <==

    [ (6-31G(D_P) AUX) ]
    cartesian
    ****
    N   1
    S   1 1.00
                      1102.86224530           1.00000000
    S   1 1.00
                       370.98041153           1.00000000
    S   1 1.00
                       136.73555938           1.00000000
    S   1 1.00
                        50.75587192           1.00000000
    S   1 1.00
                        20.53565610           1.00000000
    S   1 1.00
                         7.83187372           1.00000000
    S   1 1.00
                         3.47840639           1.00000000
    S   1 1.00
                         1.45528566           1.00000000
    S   1 1.00
                         0.63068989           1.00000000
    S   1 1.00
                         0.27276596           1.00000000
    P   1 1.00
                        93.54095407           1.00000000
    P   1 1.00
                        29.52401953           1.00000000
    P   1 1.00
                        10.91750299           1.00000000
    P   1 1.00
                         4.34492890           1.00000000
    P   1 1.00
                         1.82169126           1.00000000
    P   1 1.00
                         0.75792424           1.00000000
    P   1 1.00
                         0.28241469           1.00000000
    D   1 1.00
                        16.41937893           1.00000000
    D   1 1.00
                         5.01040494           1.00000000
    D   1 1.00
                         1.97939719           1.00000000
    D   1 1.00
                         0.78495772           1.00000000
    D   1 1.00
                         0.28954066           1.00000000
    F   1 1.00
                         1.79354240           1.00000000
    F   1 1.00
                         0.60854240           1.00000000
    ****
    O   2
    S   1 1.00
                      1517.86675060           1.00000000
    S   1 1.00
                       489.67952008           1.00000000
    S   1 1.00
                       176.72118665           1.00000000
    S   1 1.00
                        63.79223314           1.00000000
    S   1 1.00
                        25.36649913           1.00000000
    S   1 1.00
                         9.91354912           1.00000000
    S   1 1.00
                         4.46453066           1.00000000
    S   1 1.00
                         1.80177437           1.00000000
    S   1 1.00
                         0.80789711           1.00000000
    S   1 1.00
                         0.33864327           1.00000000
    P   1 1.00
                       120.16030921           1.00000000
    P   1 1.00
                        34.40962247           1.00000000
    P   1 1.00
                        12.58114861           1.00000000
    P   1 1.00
                         5.06638242           1.00000000
    P   1 1.00
                         2.03469271           1.00000000
    P   1 1.00
                         0.86092967           1.00000000
    P   1 1.00
                         0.36681357           1.00000000
    D   1 1.00
                        19.04306281           1.00000000
    D   1 1.00
                         5.80603811           1.00000000
    D   1 1.00
                         2.18918416           1.00000000
    D   1 1.00
                         0.87794614           1.00000000
    D   1 1.00
                         0.35623647           1.00000000
    F   1 1.00
                         2.49391479           1.00000000
    F   1 1.00
                         0.82491479           1.00000000
    ****
    H   3
    S   1 1.00
                         9.53024933           1.00000000
    S   1 1.00
                         1.91745062           1.00000000
    S   1 1.00
                         0.68424049           1.00000000
    S   1 1.00
                         0.28413256           1.00000000
    P   1 1.00
                         2.91332320           1.00000000
    P   1 1.00
                         1.26212054           1.00000000
    P   1 1.00
                         0.50199776           1.00000000
    D   1 1.00
                         2.31353291           1.00000000
    D   1 1.00
                         0.71290724           1.00000000
    ****
    O   4
    S   1 1.00
                      1517.86675060           1.00000000
    S   1 1.00
                       489.67952008           1.00000000
    S   1 1.00
                       176.72118665           1.00000000
    S   1 1.00
                        63.79223314           1.00000000
    S   1 1.00
                        25.36649913           1.00000000
    S   1 1.00
                         9.91354912           1.00000000
    S   1 1.00
                         4.46453066           1.00000000
    S   1 1.00
                         1.80177437           1.00000000
    S   1 1.00
                         0.80789711           1.00000000
    S   1 1.00
                         0.33864327           1.00000000
    P   1 1.00
                       120.16030921           1.00000000
    P   1 1.00
                        34.40962247           1.00000000
    P   1 1.00
                        12.58114861           1.00000000
    P   1 1.00
                         5.06638242           1.00000000
    P   1 1.00
                         2.03469271           1.00000000
    P   1 1.00
                         0.86092967           1.00000000
    P   1 1.00
                         0.36681357           1.00000000
    D   1 1.00
                        19.04306281           1.00000000
    D   1 1.00
                         5.80603811           1.00000000
    D   1 1.00
                         2.18918416           1.00000000
    D   1 1.00
                         0.87794614           1.00000000
    D   1 1.00
                         0.35623647           1.00000000
    F   1 1.00
                         2.49391479           1.00000000
    F   1 1.00
                         0.82491479           1.00000000
    ****

  Cached 100.0% of DFT collocation blocks in 0.112 [GiB].

  Minimum eigenvalue in the overlap matrix is 5.2017799227E-03.
  Using Symmetric Orthogonalization.

  SCF Guess: Orbitals guess was supplied from a previous computation.

  ==> Iterations <==

                           Total Energy        Delta E     RMS |[F,P]|

   @DF-UKS iter   0:  -205.83618310584262   -2.05836e+02   1.35312e-02 
DIIS coefficients:  1.000 
    Occupation by irrep:
             Ap   App 
    DOCC [    10,    2 ]
    SOCC [     0,    0 ]

   @DF-UKS iter   1:  -205.68941058070314    1.46773e-01   3.14654e-03 DIIS
DIIS coefficients:  0.720  0.280 
    Occupation by irrep:
             Ap   App 
    DOCC [    10,    2 ]
    SOCC [     0,    0 ]

   @DF-UKS iter   2:  -205.66087276552020    2.85378e-02   7.87069e-03 DIIS
DIIS coefficients:  0.352  0.147  0.502 
    Occupation by irrep:
             Ap   App 
    DOCC [    10,    2 ]
    SOCC [     0,    0 ]

   @DF-UKS iter   3:  -205.69516377508870   -3.42910e-02   8.19235e-04 DIIS
DIIS coefficients:  0.132  0.054  0.365  0.449 
    Occupation by irrep:
             Ap   App 
    DOCC [    10,    2 ]
    SOCC [     0,    0 ]

   @DF-UKS iter   4:  -205.69544997979600   -2.86205e-04   5.01605e-04 DIIS
DIIS coefficients:  0.016  0.004  0.108  0.197  0.676 
    Occupation by irrep:
             Ap   App 
    DOCC [    10,    2 ]
    SOCC [     0,    0 ]

   @DF-UKS iter   5:  -205.69559801976618   -1.48040e-04   8.86642e-05 DIIS
DIIS coefficients:  -0.006  -0.004  -0.002  0.012  0.152  0.848 
    Occupation by irrep:
             Ap   App 
    DOCC [    10,    2 ]
    SOCC [     0,    0 ]

   @DF-UKS iter   6:  -205.69560243692604   -4.41716e-06   1.27586e-05 DIIS
DIIS coefficients:  -0.001  -0.001  -0.002  -0.003  0.004  0.122  0.880 
    Occupation by irrep:
             Ap   App 
    DOCC [    10,    2 ]
    SOCC [     0,    0 ]

   @DF-UKS iter   7:  -205.69560255811746   -1.21191e-07   1.80769e-06 DIIS
DIIS coefficients:  0.000  0.000  -0.000  -0.001  -0.007  -0.018  0.108  0.917 
    Occupation by irrep:
             Ap   App 
    DOCC [    10,    2 ]
    SOCC [     0,    0 ]

   @DF-UKS iter   8:  -205.69560256102798   -2.91053e-09   4.14114e-07 DIIS
DIIS coefficients:  0.000  0.000  0.000  0.000  -0.000  -0.005  -0.032  0.081  0.956 
    Occupation by irrep:
             Ap   App 
    DOCC [    10,    2 ]
    SOCC [     0,    0 ]

   @DF-UKS iter   9:  -205.69560256119874   -1.70758e-10   8.57841e-08 DIIS
DIIS coefficients:  0.000  -0.000  0.000  0.000  0.000  -0.000  -0.004  -0.006  0.056  0.955 
    Occupation by irrep:
             Ap   App 
    DOCC [    10,    2 ]
    SOCC [     0,    0 ]

   @DF-UKS iter  10:  -205.69560256120403   -5.28644e-12   1.35731e-08 DIIS
DIIS coefficients:  0.000  0.903  0.000  0.000  0.000  0.000  -0.000  -0.001  0.001  0.097 
    Occupation by irrep:
             Ap   App 
    DOCC [    10,    2 ]
    SOCC [     0,    0 ]

   @DF-UKS iter  11:  -205.69560256120428   -2.55795e-13   5.27014e-10 DIIS

  DF guess converged.

  ==> DirectJK: Integral-Direct J/K Matrices <==

    J tasked:                  Yes
    K tasked:                  Yes
    wK tasked:                  No
    Integrals threads:           1
    Schwarz Cutoff:          1E-12

DIIS coefficients:  1.000 
    Occupation by irrep:
             Ap   App 
    DOCC [    10,    2 ]
    SOCC [     0,    0 ]

   @UKS iter  12:  -205.69562013993354   -2.05696e+02   1.62767e-05 DIIS
DIIS coefficients:  -0.010  1.010 
    Occupation by irrep:
             Ap   App 
    DOCC [    10,    2 ]
    SOCC [     0,    0 ]

   @UKS iter  13:  -205.69562033148537   -1.91552e-07   2.59524e-06 DIIS
DIIS coefficients:  -0.031  0.738  0.293 
    Occupation by irrep:
             Ap   App 
    DOCC [    10,    2 ]
    SOCC [     0,    0 ]

   @UKS iter  14:  -205.69562031552104    1.59643e-08   6.09019e-06 DIIS
DIIS coefficients:  -0.014  0.268  0.122  0.624 
    Occupation by irrep:
             Ap   App 
    DOCC [    10,    2 ]
    SOCC [     0,    0 ]

   @UKS iter  15:  -205.69562033639343   -2.08724e-08   5.91647e-07 DIIS
DIIS coefficients:  -0.006  0.101  0.043  0.430  0.432 
    Occupation by irrep:
             Ap   App 
    DOCC [    10,    2 ]
    SOCC [     0,    0 ]

   @UKS iter  16:  -205.69562033651948   -1.26050e-10   4.35568e-07 DIIS
DIIS coefficients:  -0.000  -0.004  -0.008  0.125  0.233  0.654 
    Occupation by irrep:
             Ap   App 
    DOCC [    10,    2 ]
    SOCC [     0,    0 ]

   @UKS iter  17:  -205.69562033663371   -1.14227e-10   1.18193e-07 DIIS
DIIS coefficients:  0.001  -0.014  -0.009  -0.014  0.017  0.177  0.842 
    Occupation by irrep:
             Ap   App 
    DOCC [    10,    2 ]
    SOCC [     0,    0 ]

   @UKS iter  18:  -205.69562033664221   -8.49809e-12   2.06381e-08 DIIS
DIIS coefficients:  -0.000  0.000  0.000  -0.001  -0.004  -0.010  -0.003  1.017 
    Occupation by irrep:
             Ap   App 
    DOCC [    10,    2 ]
    SOCC [     0,    0 ]

   @UKS iter  19:  -205.69562033664235   -1.42109e-13   1.31050e-09 DIIS
  Energy and wave function converged.


  ==> Post-Iterations <==

   @Spin Contamination Metric:   8.881784197E-15
   @S^2 Expected:                0.000000000E+00
   @S^2 Observed:                8.881784197E-15
   @S   Expected:                0.000000000E+00
   @S   Observed:                0.000000000E+00

    Orbital Energies [Eh]
    ---------------------

    Alpha Occupied:                                                       

       1Ap   -19.230931     2Ap   -19.214817     3Ap   -14.527248  
       4Ap    -1.227220     5Ap    -1.043050     6Ap    -0.686290  
       7Ap    -0.567298     1App   -0.502363     8Ap    -0.501564  
       9Ap    -0.404998     2App   -0.342040    10Ap    -0.287736  

    Alpha Virtual:                                                        

       3App   -0.088667    11Ap     0.058361    12Ap     0.113670  
      13Ap     0.313475    14Ap     0.607069    15Ap     0.631672  
       4App    0.646723    16Ap     0.682112    17Ap     0.765007  
      18Ap     0.830731    19Ap     0.862223     5App    0.889484  
       6App    0.917470    20Ap     0.943725    21Ap     1.068108  
      22Ap     1.260911     7App    1.354586    23Ap     1.370566  
      24Ap     1.451251     8App    1.452925     9App    1.608570  
      25Ap     1.757153    10App    1.802452    26Ap     1.905170  
      27Ap     2.085835    28Ap     2.247624    11App    2.317275  
      29Ap     2.403699    30Ap     2.415001    12App    2.522003  
      13App    2.616518    31Ap     2.700680    32Ap     2.839546  
      33Ap     2.950278    34Ap     3.350675    35Ap     3.388787  
      36Ap     3.635304    37Ap     3.769935  

    Beta Occupied:                                                        

       1Ap   -19.230931     2Ap   -19.214817     3Ap   -14.527248  
       4Ap    -1.227220     5Ap    -1.043050     6Ap    -0.686290  
       7Ap    -0.567298     1App   -0.502363     8Ap    -0.501564  
       9Ap    -0.404998     2App   -0.342040    10Ap    -0.287736  

    Beta Virtual:                                                         

       3App   -0.088667    11Ap     0.058361    12Ap     0.113670  
      13Ap     0.313475    14Ap     0.607069    15Ap     0.631672  
       4App    0.646723    16Ap     0.682112    17Ap     0.765007  
      18Ap     0.830731    19Ap     0.862223     5App    0.889484  
       6App    0.917470    20Ap     0.943725    21Ap     1.068108  
      22Ap     1.260911     7App    1.354586    23Ap     1.370566  
      24Ap     1.451251     8App    1.452925     9App    1.608570  
      25Ap     1.757153    10App    1.802452    26Ap     1.905170  
      27Ap     2.085835    28Ap     2.247624    11App    2.317275  
      29Ap     2.403699    30Ap     2.415001    12App    2.522003  
      13App    2.616518    31Ap     2.700680    32Ap     2.839546  
      33Ap     2.950278    34Ap     3.350675    35Ap     3.388787  
      36Ap     3.635304    37Ap     3.769935  

    Final Occupation by Irrep:
             Ap   App 
    DOCC [    10,    2 ]
    SOCC [     0,    0 ]

  @UKS Final Energy:  -205.69562033664235

   => Energetics <=

    Nuclear Repulsion Energy =             69.8576320570348344
    One-Electron Energy =                -419.9171577665591713
    Two-Electron Energy =                 164.0200689359246837
    DFT Exchange-Correlation Energy =     -19.6561635630426998
    Empirical Dispersion Energy =           0.0000000000000000
    VV10 Nonlocal Energy =                  0.0000000000000000
    Total Energy =                       -205.6956203366423495

  UHF NO Occupations:
  HONO-2 :    8 Ap 2.0000000
  HONO-1 :    9 Ap 2.0000000
  HONO-0 :   10 Ap 2.0000000
  LUNO+0 :   11 Ap 0.0000000
  LUNO+1 :   12 Ap 0.0000000
  LUNO+2 :   13 Ap 0.0000000
  LUNO+3 :   14 Ap 0.0000000


Computation Completed


Properties will be evaluated at   0.000000,   0.000000,   0.000000 [a0]

Properties computed using the SCF density matrix

  Nuclear Dipole Moment: [e a0]
     X:     1.3499      Y:    -1.0570      Z:     0.0000

  Electronic Dipole Moment: [e a0]
     X:    -0.9298      Y:     0.2981      Z:     0.0000

  Dipole Moment: [e a0]
     X:     0.4201      Y:    -0.7589      Z:     0.0000     Total:     0.8674

  Dipole Moment: [D]
     X:     1.0678      Y:    -1.9289      Z:     0.0000     Total:     2.2048


*** tstop() called on FACC02D75Y4MD6T.tld at Sun Sep 20 10:42:47 2020
Module time:
	user time   =       3.87 seconds =       0.06 minutes
	system time =       0.10 seconds =       0.00 minutes
	total time  =          4 seconds =       0.07 minutes
Total time:
	user time   =       8.59 seconds =       0.14 minutes
	system time =       0.22 seconds =       0.00 minutes
	total time  =          8 seconds =       0.13 minutes

*** tstart() called on FACC02D75Y4MD6T.tld
*** at Sun Sep 20 10:42:47 2020


         ------------------------------------------------------------
                                   SCF GRAD                          
                          Rob Parrish, Justin Turney,                
                       Andy Simmonett, and Alex Sokolov              
         ------------------------------------------------------------

  ==> Geometry <==

    Molecular point group: cs
    Full point group: Cs

    Geometry (in Angstrom), charge = 0, multiplicity = 1:

       Center              X                  Y                   Z               Mass       
    ------------   -----------------  -----------------  -----------------  -----------------
         N           -0.376438943812    -0.428518900334     0.000000000000    14.003074004430
         O            1.041782388105    -0.230563149279     0.000000000000    15.994914619570
         H            1.437520434361    -1.131091297783     0.000000000000     1.007825032230
         O           -0.802798098337     0.676987789056     0.000000000000    15.994914619570

           N
              BASIS           6-31G(D_P)           be17c05ec1461ad3097843c20da1040adf86ba79
              DF_BASIS_SCF    (6-31G(D_P) AUX)     8eb73939244d0ff71e080d82475ea73ba87737d3
           O
              BASIS           6-31G(D_P)           ec2d227169b1af6c6a69bc8715bab79dbd7bb644
              DF_BASIS_SCF    (6-31G(D_P) AUX)     b57462463db1b385e39e4428a46364991bcd7673
           H
              BASIS           6-31G(D_P)           902186d0f3205710946c2c15d2c68458d6f6cc2a
              DF_BASIS_SCF    (6-31G(D_P) AUX)     1164366b470d7a66fddaf681ef9d1c28421b3e4a
           O
              BASIS           6-31G(D_P)           ec2d227169b1af6c6a69bc8715bab79dbd7bb644
[...]
 disp 9:   -0.0000815895   0.0000252189  -0.0002251521   0.0010987792   0.0017703401

    Force Constants for irrep Ap in mass-weighted, symmetry-adapted cartesian coordinates.

[[ 3.5403042616e-02 -2.0365542049e-02  1.1225755042e-02 -5.0431653997e-03
   5.5051307670e-03]
 [-2.0365542049e-02  9.8487883412e-02 -3.7695244698e-02 -6.9473821876e-05
  -5.4058239684e-04]
 [ 1.1225755042e-02 -3.7695244698e-02  3.9542742387e-02 -3.4527574020e-02
  -4.8515124342e-02]
 [-5.0431653997e-03 -6.9473821876e-05 -3.4527574020e-02  2.3167699545e-01
   2.2301461749e-01]
 [ 5.5051307670e-03 -5.4058239684e-04 -4.8515124342e-02  2.2301461749e-01
   3.5794453184e-01]]

    Normal coordinates (non-mass-weighted) for irrep Ap:

[[ 8.5976035812e-05 -5.6603917244e-02  4.0007130138e-02  2.0196269682e-01
  -3.3623523155e-02]
 [-2.0324538085e-03  1.8761053698e-01  1.5183783693e-02  7.7190210390e-02
   7.9045103468e-02]
 [ 0.0000000000e+00  0.0000000000e+00  0.0000000000e+00  0.0000000000e+00
   0.0000000000e+00]
 [ 2.0003573446e-02 -2.5476922788e-02 -2.8246001820e-02 -8.7979487671e-02
   1.7444714612e-01]
 [-5.7312182471e-02 -1.8822826665e-02 -7.5449769252e-02 -4.7239609220e-02
  -6.4278904307e-02]
 [ 0.0000000000e+00  0.0000000000e+00  0.0000000000e+00  0.0000000000e+00
   0.0000000000e+00]
 [-3.1150406872e-01  1.4535818799e-01  8.4848170082e-01 -3.0101954069e-01
  -1.1378808862e-01]
 [ 9.1467235531e-01  4.9770792172e-02  2.2246186745e-01 -1.1705613976e-01
  -1.6195054522e-01]
 [ 0.0000000000e+00  0.0000000000e+00  0.0000000000e+00  0.0000000000e+00
   0.0000000000e+00]
 [-4.5125467767e-04  6.5873088507e-02 -6.0241116440e-02 -6.9865903908e-02
  -1.3784106344e-01]
 [ 1.4588618299e-03 -1.4856065410e-01  4.8139696280e-02 -1.2962532747e-02
   5.2816140720e-03]
 [ 0.0000000000e+00  0.0000000000e+00  0.0000000000e+00  0.0000000000e+00
   0.0000000000e+00]]
Gradients in B-matrix coordinates
 disp 0:   -0.0000668582

    Force Constants for irrep App in mass-weighted, symmetry-adapted cartesian coordinates.

[[0.0133716353]]

    Normal coordinates (non-mass-weighted) for irrep App:

[[ 0.          ]
 [ 0.          ]
 [ 0.064163533 ]
 [ 0.          ]
 [ 0.          ]
 [ 0.0520822207]
 [ 0.          ]
 [ 0.          ]
 [-0.9231267695]
 [ 0.          ]
 [ 0.          ]
 [-0.0500901147]]

    Force constant matrix for all computed irreps in mass-weighted SALCS.

[[ 3.5403042616e-02 -2.0365542049e-02  1.1225755042e-02 -5.0431653997e-03
   5.5051307670e-03  0.0000000000e+00]
 [-2.0365542049e-02  9.8487883412e-02 -3.7695244698e-02 -6.9473821876e-05
  -5.4058239684e-04  0.0000000000e+00]
 [ 1.1225755042e-02 -3.7695244698e-02  3.9542742387e-02 -3.4527574020e-02
  -4.8515124342e-02  0.0000000000e+00]
 [-5.0431653997e-03 -6.9473821876e-05 -3.4527574020e-02  2.3167699545e-01
   2.2301461749e-01  0.0000000000e+00]
 [ 5.5051307670e-03 -5.4058239684e-04 -4.8515124342e-02  2.2301461749e-01
   3.5794453184e-01  0.0000000000e+00]
 [ 0.0000000000e+00  0.0000000000e+00  0.0000000000e+00  0.0000000000e+00
   0.0000000000e+00  1.3371635332e-02]]

    Force constants in mass-weighted Cartesian coordinates.

[[ 2.3163516147e-02 -1.1981419751e-02  0.0000000000e+00 -7.2311727771e-03
  -4.5314925094e-03  0.0000000000e+00 -1.7790750450e-03 -1.1567321292e-03
   0.0000000000e+00 -1.3995559245e-02  1.6032454923e-02  0.0000000000e+00]
 [-1.1981419751e-02  6.3860957215e-02  0.0000000000e+00 -9.1874359683e-03
  -9.2800879708e-03  0.0000000000e+00  1.3898489275e-02 -3.1745355510e-04
   0.0000000000e+00  1.6909295162e-02 -5.0392736014e-02  0.0000000000e+00]
 [ 0.0000000000e+00  0.0000000000e+00  7.7087586178e-04  0.0000000000e+00
   0.0000000000e+00  6.6875176599e-04  0.0000000000e+00  0.0000000000e+00
  -2.9753523341e-03  0.0000000000e+00  0.0000000000e+00 -6.4317251134e-04]
 [-7.2311727771e-03 -9.1874359683e-03  0.0000000000e+00  1.6299409168e-02
  -7.4906436976e-03  0.0000000000e+00 -1.9586560551e-02  3.6419603658e-02
   0.0000000000e+00 -4.6169061443e-03  6.9451052940e-03  0.0000000000e+00]
 [-4.5314925094e-03 -9.2800879708e-03  0.0000000000e+00 -7.4906436976e-03
   3.6602688627e-02  0.0000000000e+00  2.2390739381e-02 -1.1590217831e-01
   0.0000000000e+00  6.1101695404e-03  1.1736865478e-03  0.0000000000e+00]
 [ 0.0000000000e+00  0.0000000000e+00  6.6875176599e-04  0.0000000000e+00
   0.0000000000e+00  5.8015686661e-04  0.0000000000e+00  0.0000000000e+00
  -2.5811835946e-03  0.0000000000e+00  0.0000000000e+00 -5.5796630057e-04]
 [-1.7790750450e-03  1.3898489275e-02  0.0000000000e+00 -1.9586560551e-02
   2.2390739381e-02  0.0000000000e+00  1.0434844830e-01 -1.3884910520e-01
   0.0000000000e+00 -4.9419622022e-03 -5.4171640441e-04  0.0000000000e+00]
 [-1.1567321292e-03 -3.1745355510e-04  0.0000000000e+00  3.6419603658e-02
  -1.1590217831e-01  0.0000000000e+00 -1.3884910520e-01  4.5438783228e-01
   0.0000000000e+00 -4.8392576883e-04  2.1405393704e-03  0.0000000000e+00]
 [ 0.0000000000e+00  0.0000000000e+00 -2.9753523341e-03  0.0000000000e+00
   0.0000000000e+00 -2.5811835946e-03  0.0000000000e+00  0.0000000000e+00
   1.1483978097e-02  0.0000000000e+00  0.0000000000e+00  2.4824552534e-03]
 [-1.3995559245e-02  1.6909295162e-02  0.0000000000e+00 -4.6169061443e-03
   6.1101695404e-03  0.0000000000e+00 -4.9419622022e-03 -4.8392576883e-04
   0.0000000000e+00  1.8952583639e-02 -2.1810144584e-02  0.0000000000e+00]
 [ 1.6032454923e-02 -5.0392736014e-02  0.0000000000e+00  6.9451052940e-03
   1.1736865478e-03  0.0000000000e+00 -5.4171640441e-04  2.1405393704e-03
   0.0000000000e+00 -2.1810144584e-02  4.5439760326e-02  0.0000000000e+00]
 [ 0.0000000000e+00  0.0000000000e+00 -6.4317251134e-04  0.0000000000e+00
   0.0000000000e+00 -5.5796630057e-04  0.0000000000e+00  0.0000000000e+00
   2.4824552534e-03  0.0000000000e+00  0.0000000000e+00  5.3662450708e-04]]

    Force constants in Cartesian coordinates.

[[ 0.3243604308 -0.1677767074  0.           -0.1082209628 -0.067817835
   0.           -0.0066834166 -0.0043454731  0.           -0.2094560514
   0.2399400155  0.          ]
 [-0.1677767074  0.8942497099  0.           -0.1374981897 -0.1388848097
   0.            0.0522121839 -0.0011925716  0.            0.2530627133
  -0.7541723285  0.          ]
 [ 0.            0.            0.0107946317  0.            0.
   0.0100084678  0.            0.           -0.0111774481  0.
   0.           -0.0096256514]
 [-0.1082209628 -0.1374981897  0.            0.260707658  -0.1198122064
   0.           -0.0786396756  0.1462240299  0.           -0.0738470196
   0.1110863662  0.          ]
 [-0.067817835  -0.1388848097  0.           -0.1198122064  0.5854568794
   0.            0.0898984013 -0.4653450858  0.            0.0977316401
   0.0187730161  0.          ]
 [ 0.            0.            0.0100084678  0.            0.
   0.0092795595  0.            0.           -0.010363404   0.
   0.           -0.0089246233]
 [-0.0066834166  0.0522121839  0.           -0.0786396756  0.0898984013
   0.            0.1051649783 -0.1399356039  0.           -0.0198418861
  -0.0021749813  0.          ]
 [-0.0043454731 -0.0011925716  0.            0.1462240299 -0.4653450858
   0.           -0.1399356039  0.4579434317  0.           -0.0019429529
   0.0085942257  0.          ]
 [ 0.            0.           -0.0111774481  0.            0.
  -0.010363404   0.            0.            0.0115738406  0.
   0.            0.0099670116]
 [-0.2094560514  0.2530627133  0.           -0.0738470196  0.0977316401
   0.           -0.0198418861 -0.0019429529  0.            0.3031449571
  -0.3488514005  0.          ]
 [ 0.2399400155 -0.7541723285  0.            0.1110863662  0.0187730161
   0.           -0.0021749813  0.0085942257  0.           -0.3488514005
   0.7268050867  0.          ]
 [ 0.            0.           -0.0096256514  0.            0.
  -0.0089246233  0.            0.            0.0099670116  0.
   0.            0.0085832632]]

-------------------------------------------------------------


  ==> Harmonic Vibrational Analysis <==

  non-mass-weighted Hessian:       Symmetric? True   Hermitian? True   Lin Dep Dim?  6 (0)
  projection of translations (True) and rotations (True) removed 6 degrees of freedom (6)
  total projector:                 Symmetric? True   Hermitian? True   Lin Dep Dim?  6 (6)
  mass-weighted Hessian:           Symmetric? True   Hermitian? True   Lin Dep Dim?  6 (0)
  pre-proj  low-frequency mode:    0.0000i [cm^-1]
  pre-proj  low-frequency mode:    0.0000i [cm^-1]
  pre-proj  low-frequency mode:    0.0000i [cm^-1]
  pre-proj  low-frequency mode:    0.0000i [cm^-1]
  pre-proj  low-frequency mode:    0.0000  [cm^-1]
  pre-proj  low-frequency mode:    0.0000  [cm^-1]
  pre-proj  all modes:['0.0000i' '0.0000i' '0.0000i' '0.0000i' '0.0000' '0.0000' '594.4243'
 '630.5583' '860.9294' '1305.5141' '1793.0173' '3755.7094']
  projected mass-weighted Hessian: Symmetric? True   Hermitian? True   Lin Dep Dim?  6 (6)
  post-proj low-frequency mode:    0.0000i [cm^-1] (TR)
  post-proj low-frequency mode:    0.0000i [cm^-1] (TR)
  post-proj low-frequency mode:    0.0000i [cm^-1] (TR)
  post-proj low-frequency mode:    0.0000  [cm^-1] (TR)
  post-proj low-frequency mode:    0.0000  [cm^-1] (TR)
  post-proj low-frequency mode:    0.0000  [cm^-1] (TR)
  post-proj  all modes:['0.0000i' '0.0000i' '0.0000i' '0.0000' '0.0000' '0.0000' '594.4243'
 '630.5583' '860.9294' '1305.5141' '1793.0173' '3755.7094']

  Vibration                       7                   8                   9           
  Freq [cm^-1]                 594.4243            630.5583            860.9294       
  Irrep                          App                  Ap                  Ap          
  Reduced mass [u]              1.1608              9.9854              6.0211        
  Force const [mDyne/A]         0.2417              2.3392              2.6294        
  Turning point v=0 [a0]        0.4177              0.1383              0.1524        
  RMS dev v=0 [a0 u^1/2]        0.3182              0.3090              0.2644        
  Char temp [K]                855.2442            907.2330           1238.6857       
  ----------------------------------------------------------------------------------
      1   N               -0.00  0.00 -0.07   -0.11  0.25  0.00    0.50  0.19  0.00   
      2   O                0.00 -0.00 -0.06    0.55 -0.20  0.00   -0.22 -0.12 -0.00   
      3   H               -0.00 -0.00  0.99   -0.36 -0.51 -0.00   -0.74 -0.29 -0.00   
      4   O               -0.00  0.00  0.05   -0.44  0.02 -0.00   -0.17 -0.03  0.00   

  Vibration                       10                  11                  12          
  Freq [cm^-1]                1305.5141           1793.0173           3755.7094       
  Irrep                           Ap                  Ap                  Ap          
  Reduced mass [u]              1.2760             11.1831              1.0668        
  Force const [mDyne/A]         1.2814             21.1827              8.8661        
  Turning point v=0 [a0]        0.2688              0.0775              0.1733        
  RMS dev v=0 [a0 u^1/2]        0.2147              0.1832              0.1266        
  Char temp [K]               1878.3441           2579.7526           5403.6297       
  ----------------------------------------------------------------------------------
      1   N                0.05  0.02  0.00   -0.19  0.63  0.00    0.00 -0.00 -0.00   
      2   O               -0.03 -0.09 -0.00   -0.09 -0.06 -0.00    0.02 -0.06  0.00   
      3   H                0.96  0.25 -0.00    0.49  0.17 -0.00   -0.32  0.94  0.00   
      4   O               -0.07  0.05  0.00    0.22 -0.50  0.00   -0.00  0.00 -0.00   

  ==> Thermochemistry Components <==

  Entropy, S
    Electronic S            0.000 [cal/(mol K)]        0.000 [J/(mol K)]       0.00000000 [mEh/K] (multiplicity = 1)
    Translational S        37.467 [cal/(mol K)]      156.764 [J/(mol K)]       0.05970820 [mEh/K] (mol. weight = 47.0007 [u], P = 101325.00 [Pa])
    Rotational S           20.754 [cal/(mol K)]       86.835 [J/(mol K)]       0.03307373 [mEh/K] (symmetry no. = 1)
    Vibrational S           1.052 [cal/(mol K)]        4.403 [J/(mol K)]       0.00167713 [mEh/K]
  Total S                  59.274 [cal/(mol K)]      248.002 [J/(mol K)]       0.09445907 [mEh/K]
  Correction S              0.000 [cal/(mol K)]        0.000 [J/(mol K)]       0.00000000 [mEh/K]

  Constant volume heat capacity, Cv
    Electronic Cv           0.000 [cal/(mol K)]        0.000 [J/(mol K)]       0.00000000 [mEh/K]
    Translational Cv        2.981 [cal/(mol K)]       12.472 [J/(mol K)]       0.00475022 [mEh/K]
    Rotational Cv           2.981 [cal/(mol K)]       12.472 [J/(mol K)]       0.00475022 [mEh/K]
    Vibrational Cv          2.738 [cal/(mol K)]       11.457 [J/(mol K)]       0.00436378 [mEh/K]
  Total Cv                  8.700 [cal/(mol K)]       36.400 [J/(mol K)]       0.01386421 [mEh/K]
  Correction Cv             0.000 [cal/(mol K)]        0.000 [J/(mol K)]       0.00000000 [mEh/K]

  Constant pressure heat capacity, Cp
    Electronic Cp           0.000 [cal/(mol K)]        0.000 [J/(mol K)]       0.00000000 [mEh/K]
    Translational Cp        4.968 [cal/(mol K)]       20.786 [J/(mol K)]       0.00791703 [mEh/K]
    Rotational Cp           2.981 [cal/(mol K)]       12.472 [J/(mol K)]       0.00475022 [mEh/K]
    Vibrational Cp          2.738 [cal/(mol K)]       11.457 [J/(mol K)]       0.00436378 [mEh/K]
  Total Cp                 10.687 [cal/(mol K)]       44.715 [J/(mol K)]       0.01703102 [mEh/K]
  Correction Cp             0.000 [cal/(mol K)]        0.000 [J/(mol K)]       0.00000000 [mEh/K]

  ==> Thermochemistry Energy Analysis <==

  Raw electronic energy, E0
  Total E0, Electronic energy at well bottom at 0 [K]                 -205.70029677 [Eh]

  Zero-point energy, ZPE_vib = Sum_i nu_i / 2
    Electronic ZPE          0.000 [kcal/mol]        0.000 [kJ/mol]       0.00000000 [Eh]
    Translational ZPE       0.000 [kcal/mol]        0.000 [kJ/mol]       0.00000000 [Eh]
    Rotational ZPE          0.000 [kcal/mol]        0.000 [kJ/mol]       0.00000000 [Eh]
    Vibrational ZPE        12.781 [kcal/mol]       53.474 [kJ/mol]       0.02036717 [Eh]        4470.076 [cm^-1]
  Correction ZPE           12.781 [kcal/mol]       53.474 [kJ/mol]       0.02036717 [Eh]        4470.076 [cm^-1]
  Total ZPE, Electronic energy at 0 [K]                               -205.67992960 [Eh]

  Thermal Energy, E (includes ZPE)
    Electronic E            0.000 [kcal/mol]        0.000 [kJ/mol]       0.00000000 [Eh]
    Translational E         0.889 [kcal/mol]        3.718 [kJ/mol]       0.00141628 [Eh]
    Rotational E            0.889 [kcal/mol]        3.718 [kJ/mol]       0.00141628 [Eh]
    Vibrational E          13.020 [kcal/mol]       54.477 [kJ/mol]       0.02074903 [Eh]
  Correction E             14.798 [kcal/mol]       61.913 [kJ/mol]       0.02358158 [Eh]
  Total E, Electronic energy at  298.15 [K]                           -205.67671519 [Eh]

  Enthalpy, H_trans = E_trans + k_B * T
    Electronic H            0.000 [kcal/mol]        0.000 [kJ/mol]       0.00000000 [Eh]
    Translational H         1.481 [kcal/mol]        6.197 [kJ/mol]       0.00236046 [Eh]
    Rotational H            0.889 [kcal/mol]        3.718 [kJ/mol]       0.00141628 [Eh]
    Vibrational H          13.020 [kcal/mol]       54.477 [kJ/mol]       0.02074903 [Eh]
  Correction H             15.390 [kcal/mol]       64.392 [kJ/mol]       0.02452577 [Eh]
  Total H, Enthalpy at  298.15 [K]                                    -205.67577100 [Eh]

  Gibbs free energy, G = H - T * S
    Electronic G            0.000 [kcal/mol]        0.000 [kJ/mol]       0.00000000 [Eh]
    Translational G        -9.690 [kcal/mol]      -40.542 [kJ/mol]      -0.01544154 [Eh]
    Rotational G           -5.299 [kcal/mol]      -22.171 [kJ/mol]      -0.00844466 [Eh]
    Vibrational G          12.706 [kcal/mol]       53.164 [kJ/mol]       0.02024899 [Eh]
  Correction G             -2.282 [kcal/mol]       -9.549 [kJ/mol]      -0.00363721 [Eh]
  Total G, Free enthalpy at  298.15 [K]                               -205.70393398 [Eh]
  ## New Matrix (Symmetry 0) ##
  Irrep: 1 Size: 12 x 12

                 1                   2                   3                   4                   5

    1     0.32436043080590    -0.16777670744639     0.00000000000000    -0.10822096283604    -0.06781783502782
    2    -0.16777670744639     0.89424970987973     0.00000000000000    -0.13749818973083    -0.13888480974769
    3     0.00000000000000     0.00000000000000     0.01079463174073     0.00000000000000     0.00000000000000
    4    -0.10822096283604    -0.13749818973083     0.00000000000000     0.26070765799219    -0.11981220638947
    5    -0.06781783502782    -0.13888480974769     0.00000000000000    -0.11981220638947     0.58545687943256
    6     0.00000000000000     0.00000000000000     0.01000846781635     0.00000000000000     0.00000000000000
    7    -0.00668341656068     0.05221218388179     0.00000000000000    -0.07863967557115     0.08989840130780
    8    -0.00434547305351    -0.00119257158563     0.00000000000000     0.14622402991831    -0.46534508580629
    9     0.00000000000000     0.00000000000000    -0.01117744814582     0.00000000000000     0.00000000000000
   10    -0.20945605140918     0.25306271329542     0.00000000000000    -0.07384701958501     0.09773164010950
   11     0.23994001552771    -0.75417232854641     0.00000000000000     0.11108636620199     0.01877301612142
   12     0.00000000000000     0.00000000000000    -0.00962565141126     0.00000000000000     0.00000000000000

                 6                   7                   8                   9                  10

    1     0.00000000000000    -0.00668341656068    -0.00434547305351     0.00000000000000    -0.20945605140918
    2     0.00000000000000     0.05221218388179    -0.00119257158563     0.00000000000000     0.25306271329542
    3     0.01000846781635     0.00000000000000     0.00000000000000    -0.01117744814582     0.00000000000000
    4     0.00000000000000    -0.07863967557115     0.14622402991831     0.00000000000000    -0.07384701958501
    5     0.00000000000000     0.08989840130780    -0.46534508580629     0.00000000000000     0.09773164010950
    6     0.00927955954744     0.00000000000000     0.00000000000000    -0.01036340402556     0.00000000000000
    7     0.00000000000000     0.10516497826839    -0.13993560392207     0.00000000000000    -0.01984188613656
    8     0.00000000000000    -0.13993560392207     0.45794343171404     0.00000000000000    -0.00194295294274
    9    -0.01036340402556     0.00000000000000     0.00000000000000     0.01157384059534     0.00000000000000
   10     0.00000000000000    -0.01984188613656    -0.00194295294274     0.00000000000000     0.30314495713075
   11     0.00000000000000    -0.00217498126753     0.00859422567787     0.00000000000000    -0.34885140046218
   12    -0.00892462333823     0.00000000000000     0.00000000000000     0.00996701157605     0.00000000000000

                11                  12

    1     0.23994001552771     0.00000000000000
    2    -0.75417232854641     0.00000000000000
    3     0.00000000000000    -0.00962565141126
    4     0.11108636620199     0.00000000000000
    5     0.01877301612142     0.00000000000000
    6     0.00000000000000    -0.00892462333823
    7    -0.00217498126753     0.00000000000000
    8     0.00859422567787     0.00000000000000
    9     0.00000000000000     0.00996701157605
   10    -0.34885140046218     0.00000000000000
   11     0.72680508674712     0.00000000000000
   12     0.00000000000000     0.00858326317343




    Psi4 stopped on: Sunday, 20 September 2020 10:44AM
    Psi4 wall time for execution: 0:01:36.25

*** Psi4 exiting successfully. Buy a developer a beer!
Optimizer: Optimization complete!
 12 displacements needed.
 1 2 3 4 5 6 7 8 9 10 11 12
Warning: used thermodynamics relations inappropriate for low-frequency modes: ['594.4243']
