
    -----------------------------------------------------------------------
          Psi4: An Open-Source Ab Initio Electronic Structure Package
                               Psi4 1.3.2 release

                         Git: Rev {HEAD} ecbda83 


    R. M. Parrish, L. A. Burns, D. G. A. Smith, A. C. Simmonett,
    A. E. DePrince III, E. G. Hohenstein, U. Bozkaya, A. Yu. Sokolov,
    R. Di Remigio, R. M. Richard, J. F. Gonthier, A. M. James,
    H. R. McAlexander, A. Kumar, M. Saitow, X. Wang, B. P. Pritchard,
    P. Verma, H. F. Schaefer III, K. Patkowski, R. A. King, E. F. Valeev,
    F. A. Evangelista, J. M. Turney, T. D. Crawford, and C. D. Sherrill,
    J. Chem. Theory Comput. 13(7) pp 3185--3197 (2017).
    (doi: 10.1021/acs.jctc.7b00174)


                         Additional Contributions by
    P. Kraus, H. Kruse, M. H. Lechner, M. C. Schieber, R. A. Shaw,
    A. Alenaizan, R. Galvelis, Z. L. Glick, S. Lehtola, and J. P. Misiewicz

    -----------------------------------------------------------------------


    Psi4 started on: Sunday, 20 September 2020 10:30AM

    Process ID: 24118
    Host:       FACC02D75Y4MD6T.tld
    PSIDATADIR: /Users/blais.ch/anaconda3/envs/rmg_env/share/psi4
    Memory:     500.0 MiB
    Threads:    1
    
  ==> Input File <==

--------------------------------------------------------------------------
memory 1024 mb

molecule mol {
0 1
N 0.00000000 0.00000000 0.00000000
O 1.48000000 0.00000000 0.00000000
H 1.83000000 -0.98994949 0.00000000
H -0.35666667 1.00880567 0.00000000
H -0.35666667 -0.50440284 -0.87365134

}


set {
  scf_type DIRECT
  basis 6-31G(d_p)
  reference uks
  geom_maxiter 50
  print 3
}

optimize('b3lyp')
scf_e, wfn=frequencies('b3lyp', return_wfn=True, dertype=1)
wfn.hessian().print_out()
--------------------------------------------------------------------------

  Memory set to 976.562 MiB by Python driver.
gradient() will perform analytic gradient computation.

*** tstart() called on FACC02D75Y4MD6T.tld
*** at Sun Sep 20 10:30:53 2020

   => Loading Basis Set <=

    Name: 6-31G(D_P)
    Role: ORBITAL
    Keyword: BASIS
    atoms 1   entry N          line   132 file /Users/blais.ch/anaconda3/envs/rmg_env/share/psi4/basis/6-31g_d_p_.gbs 
    atoms 2   entry O          line   149 file /Users/blais.ch/anaconda3/envs/rmg_env/share/psi4/basis/6-31g_d_p_.gbs 
    atoms 3-5 entry H          line    44 file /Users/blais.ch/anaconda3/envs/rmg_env/share/psi4/basis/6-31g_d_p_.gbs 


         ---------------------------------------------------------
                                   SCF
               by Justin Turney, Rob Parrish, Andy Simmonett
                          and Daniel G. A. Smith
                              UKS Reference
                        1 Threads,    976 MiB Core
         ---------------------------------------------------------

  ==> Geometry <==

    Molecular point group: c1
    Full point group: C1

    Geometry (in Angstrom), charge = 0, multiplicity = 1:

       Center              X                  Y                   Z               Mass       
    ------------   -----------------  -----------------  -----------------  -----------------
         N           -0.750962418242     0.014819030507     0.026664102395    14.003074004430
         O            0.729037581758     0.014819030507     0.026664102395    15.994914619570
         H            1.079037581758    -0.975130459493     0.026664102395     1.007825032230
         H           -1.107629088242     1.023624700507     0.026664102395     1.007825032230
         H           -1.107629088242    -0.489583809493    -0.846987237605     1.007825032230

           N
              BASIS           6-31G(D_P)           be17c05ec1461ad3097843c20da1040adf86ba79
           O
              BASIS           6-31G(D_P)           ec2d227169b1af6c6a69bc8715bab79dbd7bb644
           H
              BASIS           6-31G(D_P)           902186d0f3205710946c2c15d2c68458d6f6cc2a
           H
              BASIS           6-31G(D_P)           902186d0f3205710946c2c15d2c68458d6f6cc2a
           H
              BASIS           6-31G(D_P)           902186d0f3205710946c2c15d2c68458d6f6cc2a

  Running in c1 symmetry.

  Rotational constants: A =      5.99119  B =      0.81160  C =      0.74853 [cm^-1]
  Rotational constants: A = 179611.38626  B =  24331.21864  C =  22440.38849 [MHz]
  Nuclear repulsion =   37.501033151756097

  Charge       = 0
  Multiplicity = 1
  Electrons    = 18
  Nalpha       = 9
  Nbeta        = 9

  ==> Algorithm <==

  SCF Algorithm Type is DIRECT.
  DIIS enabled.
  MOM disabled.
  Fractional occupation disabled.
  Guess Type is SAD.
  Energy threshold   = 1.00e-08
  Density threshold  = 1.00e-08
  Integral threshold = 0.00e+00

  ==> Primary Basis <==

  -AO BASIS SET INFORMATION:
    Name                   = 6-31G(D_P)
    Blend                  = 6-31G(D_P)
    Total number of shells = 21
    Number of primitives   = 45
    Number of AO           = 45
    Number of SO           = 45
    Maximum AM             = 2
    Spherical Harmonics    = FALSE

  -Contraction Scheme:
    Atom   Type   All Primitives // Shells:
   ------ ------ --------------------------
       1     N     10s 4p 1d // 3s 2p 1d 
       2     O     10s 4p 1d // 3s 2p 1d 
       3     H     4s 1p // 2s 1p 
       4     H     4s 1p // 2s 1p 
       5     H     4s 1p // 2s 1p 

  ==> AO Basis Functions <==

    [ 6-31G(D_P) ]
    cartesian
    ****
    N   1
    S   6 1.00
                      4173.51100000           0.00183480
                       627.45790000           0.01399500
                       142.90210000           0.06858700
                        40.23433000           0.23224100
                        12.82021000           0.46907000
                         4.39043700           0.36045500
    S   3 1.00
                        11.62635800          -0.11496100
                         2.71628000          -0.16911800
                         0.77221800           1.14585200
    P   3 1.00
                        11.62635800           0.06758000
                         2.71628000           0.32390700
                         0.77221800           0.74089500
    S   1 1.00
                         0.21203130           1.00000000
    P   1 1.00
                         0.21203130           1.00000000
    D   1 1.00
                         0.80000000           1.00000000
    ****
    O   2
    S   6 1.00
                      5484.67170000           0.00183110
                       825.23495000           0.01395010
                       188.04696000           0.06844510
                        52.96450000           0.23271430
                        16.89757000           0.47019300
                         5.79963530           0.35852090
    S   3 1.00
                        15.53961600          -0.11077750
                         3.59993360          -0.14802630
                         1.01376180           1.13076700
    P   3 1.00
                        15.53961600           0.07087430
                         3.59993360           0.33975280
                         1.01376180           0.72715860
    S   1 1.00
                         0.27000580           1.00000000
    P   1 1.00
                         0.27000580           1.00000000
    D   1 1.00
                         0.80000000           1.00000000
    ****
    H   3
    S   3 1.00
                        18.73113700           0.03349460
                         2.82539370           0.23472695
                         0.64012170           0.81375733
    S   1 1.00
                         0.16127780           1.00000000
    P   1 1.00
                         1.10000000           1.00000000
    ****
    H   4
    S   3 1.00
                        18.73113700           0.03349460
                         2.82539370           0.23472695
                         0.64012170           0.81375733
    S   1 1.00
                         0.16127780           1.00000000
    P   1 1.00
                         1.10000000           1.00000000
    ****
    H   5
    S   3 1.00
                        18.73113700           0.03349460
                         2.82539370           0.23472695
                         0.64012170           0.81375733
    S   1 1.00
                         0.16127780           1.00000000
    P   1 1.00
                         1.10000000           1.00000000
    ****

  ==> DFT Potential <==

   => Composite Functional: B3LYP <= 

    B3LYP Hyb-GGA Exchange-Correlation Functional

    P. J. Stephens, F. J. Devlin, C. F. Chabalowski, and M. J. Frisch, J. Phys. Chem. 98, 11623 (1994)

    Deriv               =              1
    GGA                 =           TRUE
    Meta                =          FALSE

    Exchange Hybrid     =           TRUE
    MP2 Hybrid          =          FALSE

   => Exchange Functionals <=

    0.0800   Slater exchange
    0.7200         Becke 88

   => Exact (HF) Exchange <=

    0.2000               HF 

   => Correlation Functionals <=

    0.1900   Vosko, Wilk & Nusair (VWN5_RPA)
    0.8100   Lee, Yang & Parr

   => XC_HYB_GGA_XC_B3LYP Functional <=

    B3LYP
    P. J. Stephens, F. J. Devlin, C. F. Chabalowski, and M. J. Frisch, J. Phys. Chem. 98, 11623 (1994)
    GGA   =           TRUE
    Meta  =          FALSE
    LRC   =          FALSE
    Alpha =   1.000000E+00
    Omega =   0.000000E+00

    > Parameters <


   => Molecular Quadrature <=

    Radial Scheme          =       TREUTLER
    Pruning Scheme         =           FLAT
    Nuclear Scheme         =       TREUTLER

    BS radius alpha        =              1
    Pruning alpha          =              1
    Radial Points          =             75
    Spherical Points       =            302
    Total Points           =         109474
    Total Blocks           =            883
    Max Points             =            255
    Max Functions          =             45

   => Loading Basis Set <=

    Name: (6-31G(D_P) AUX)
    Role: JKFIT
    Keyword: DF_BASIS_SCF
    atoms 1   entry N          line   171 file /Users/blais.ch/anaconda3/envs/rmg_env/share/psi4/basis/cc-pvdz-jkfit.gbs 
    atoms 2   entry O          line   221 file /Users/blais.ch/anaconda3/envs/rmg_env/share/psi4/basis/cc-pvdz-jkfit.gbs 
    atoms 3-5 entry H          line    51 file /Users/blais.ch/anaconda3/envs/rmg_env/share/psi4/basis/cc-pvdz-jkfit.gbs 

  Starting with a DF guess...

  ==> Pre-Iterations <==

   -------------------------------------------------------
    Irrep   Nso     Nmo     Nalpha   Nbeta   Ndocc  Nsocc
   -------------------------------------------------------
     A         45      45       0       0       0       0
   -------------------------------------------------------
    Total      45      45       9       9       9       0
   -------------------------------------------------------

  ==> Integral Setup <==

  DFHelper Memory: AOs need 0.004 GiB; user supplied 0.586 GiB. Using in-core AOs.

  ==> MemDFJK: Density-Fitted J/K Matrices <==

    J tasked:                   Yes
    K tasked:                   Yes
    wK tasked:                   No
    OpenMP threads:               1
    Memory [MiB]:               600
    Algorithm:                 Core
    Schwarz Cutoff:           1E-12
    Mask sparsity (%):       0.0000
    Fitting Condition:        1E-10

   => Auxiliary Basis Set <=

  -AO BASIS SET INFORMATION:
    Name                   = (6-31G(D_P) AUX)
    Blend                  = CC-PVDZ-JKFIT
    Total number of shells = 75
    Number of primitives   = 75
    Number of AO           = 237
    Number of SO           = 237
    Maximum AM             = 3
    Spherical Harmonics    = FALSE

  -Contraction Scheme:
    Atom   Type   All Primitives // Shells:
   ------ ------ --------------------------
       1     N     10s 7p 5d 2f // 10s 7p 5d 2f 
       2     O     10s 7p 5d 2f // 10s 7p 5d 2f 
       3     H     4s 3p 2d // 4s 3p 2d 
       4     H     4s 3p 2d // 4s 3p 2d 
       5     H     4s 3p 2d // 4s 3p 2d 

  ==> AO Basis Functions <==

    [ (6-31G(D_P) AUX) ]
    cartesian
    ****
    N   1
    S   1 1.00
                      1102.86224530           1.00000000
    S   1 1.00
                       370.98041153           1.00000000
    S   1 1.00
                       136.73555938           1.00000000
    S   1 1.00
                        50.75587192           1.00000000
    S   1 1.00
                        20.53565610           1.00000000
    S   1 1.00
                         7.83187372           1.00000000
    S   1 1.00
                         3.47840639           1.00000000
    S   1 1.00
                         1.45528566           1.00000000
    S   1 1.00
                         0.63068989           1.00000000
    S   1 1.00
                         0.27276596           1.00000000
    P   1 1.00
                        93.54095407           1.00000000
    P   1 1.00
                        29.52401953           1.00000000
    P   1 1.00
                        10.91750299           1.00000000
    P   1 1.00
                         4.34492890           1.00000000
    P   1 1.00
                         1.82169126           1.00000000
    P   1 1.00
                         0.75792424           1.00000000
    P   1 1.00
                         0.28241469           1.00000000
    D   1 1.00
                        16.41937893           1.00000000
    D   1 1.00
                         5.01040494           1.00000000
    D   1 1.00
                         1.97939719           1.00000000
    D   1 1.00
                         0.78495772           1.00000000
    D   1 1.00
                         0.28954066           1.00000000
    F   1 1.00
                         1.79354240           1.00000000
    F   1 1.00
                         0.60854240           1.00000000
    ****
    O   2
    S   1 1.00
                      1517.86675060           1.00000000
    S   1 1.00
                       489.67952008           1.00000000
    S   1 1.00
                       176.72118665           1.00000000
    S   1 1.00
                        63.79223314           1.00000000
    S   1 1.00
                        25.36649913           1.00000000
    S   1 1.00
                         9.91354912           1.00000000
    S   1 1.00
                         4.46453066           1.00000000
    S   1 1.00
                         1.80177437           1.00000000
    S   1 1.00
                         0.80789711           1.00000000
    S   1 1.00
                         0.33864327           1.00000000
    P   1 1.00
                       120.16030921           1.00000000
    P   1 1.00
                        34.40962247           1.00000000
    P   1 1.00
                        12.58114861           1.00000000
    P   1 1.00
                         5.06638242           1.00000000
    P   1 1.00
                         2.03469271           1.00000000
    P   1 1.00
                         0.86092967           1.00000000
    P   1 1.00
                         0.36681357           1.00000000
    D   1 1.00
                        19.04306281           1.00000000
    D   1 1.00
                         5.80603811           1.00000000
    D   1 1.00
                         2.18918416           1.00000000
    D   1 1.00
                         0.87794614           1.00000000
    D   1 1.00
                         0.35623647           1.00000000
    F   1 1.00
                         2.49391479           1.00000000
    F   1 1.00
                         0.82491479           1.00000000
    ****
    H   3
    S   1 1.00
                         9.53024933           1.00000000
    S   1 1.00
                         1.91745062           1.00000000
    S   1 1.00
                         0.68424049           1.00000000
    S   1 1.00
                         0.28413256           1.00000000
    P   1 1.00
                         2.91332320           1.00000000
    P   1 1.00
                         1.26212054           1.00000000
    P   1 1.00
                         0.50199776           1.00000000
    D   1 1.00
                         2.31353291           1.00000000
    D   1 1.00
                         0.71290724           1.00000000
    ****
    H   4
    S   1 1.00
                         9.53024933           1.00000000
    S   1 1.00
                         1.91745062           1.00000000
    S   1 1.00
                         0.68424049           1.00000000
    S   1 1.00
                         0.28413256           1.00000000
    P   1 1.00
                         2.91332320           1.00000000
    P   1 1.00
                         1.26212054           1.00000000
    P   1 1.00
                         0.50199776           1.00000000
    D   1 1.00
                         2.31353291           1.00000000
    D   1 1.00
                         0.71290724           1.00000000
    ****
    H   5
    S   1 1.00
                         9.53024933           1.00000000
    S   1 1.00
                         1.91745062           1.00000000
    S   1 1.00
                         0.68424049           1.00000000
    S   1 1.00
                         0.28413256           1.00000000
    P   1 1.00
                         2.91332320           1.00000000
    P   1 1.00
                         1.26212054           1.00000000
    P   1 1.00
                         0.50199776           1.00000000
    D   1 1.00
                         2.31353291           1.00000000
    D   1 1.00
                         0.71290724           1.00000000
    ****

  Cached 100.0% of DFT collocation blocks in 0.129 [GiB].

  Minimum eigenvalue in the overlap matrix is 1.1970040190E-02.
  Using Symmetric Orthogonalization.

  SCF Guess: Superposition of Atomic Densities via on-the-fly atomic UHF.

DIIS coefficients:  1.000 
DIIS coefficients:  0.279  0.721 
DIIS coefficients:  -0.018  0.036  0.982 
DIIS coefficients:  -0.000  -0.002  -0.067  1.070 
DIIS coefficients:  -0.000  0.000  0.009  -0.178  1.168 
DIIS coefficients:  0.000  -0.000  -0.000  0.006  -0.045  1.039 
DIIS coefficients:  1.000 
DIIS coefficients:  0.329  0.671 
DIIS coefficients:  -0.027  -0.001  1.028 
DIIS coefficients:  -0.002  -0.000  -0.045  1.047 
DIIS coefficients:  0.000  0.000  0.005  -0.173  1.168 
DIIS coefficients:  0.000  -0.000  -0.001  0.017  -0.113  1.097 
DIIS coefficients:  1.000 
DIIS coefficients:  -0.068  1.068 
DIIS coefficients:  -0.000  -0.002  1.002 
DIIS coefficients:  -0.000  -0.000  -0.001  1.001 
  ==> Iterations <==

                           Total Energy        Delta E     RMS |[F,P]|

   @DF-UKS iter SAD:  -131.14299928949052   -1.31143e+02   0.00000e+00 
DIIS coefficients:  1.000 
    Occupation by irrep:
              A 
    DOCC [     9 ]
    SOCC [     0 ]

   @DF-UKS iter   1:  -131.54904070723623   -4.06041e-01   1.27831e-02 DIIS
DIIS coefficients:  0.571  0.429 
    Occupation by irrep:
              A 
    DOCC [     9 ]
    SOCC [     0 ]

   @DF-UKS iter   2:  -131.44912773187059    9.99130e-02   1.69328e-02 DIIS
DIIS coefficients:  0.171  0.139  0.690 
    Occupation by irrep:
              A 
    DOCC [     9 ]
    SOCC [     0 ]

   @DF-UKS iter   3:  -131.69199971185080   -2.42872e-01   1.08706e-03 DIIS
DIIS coefficients:  0.068  0.055  0.412  0.465 
    Occupation by irrep:
              A 
    DOCC [     9 ]
    SOCC [     0 ]

   @DF-UKS iter   4:  -131.69258136945047   -5.81658e-04   6.86835e-04 DIIS
DIIS coefficients:  0.001  -0.001  0.058  0.206  0.736 
    Occupation by irrep:
              A 
    DOCC [     9 ]
    SOCC [     0 ]

   @DF-UKS iter   5:  -131.69292244629671   -3.41077e-04   1.56302e-04 DIIS
DIIS coefficients:  -0.000  -0.001  0.002  0.017  0.080  0.902 
    Occupation by irrep:
              A 
    DOCC [     9 ]
    SOCC [     0 ]

   @DF-UKS iter   6:  -131.69294207490216   -1.96286e-05   1.11740e-05 DIIS
DIIS coefficients:  0.000  -0.000  -0.001  -0.001  -0.002  0.140  0.865 
    Occupation by irrep:
              A 
    DOCC [     9 ]
    SOCC [     0 ]

   @DF-UKS iter   7:  -131.69294217780691   -1.02905e-07   1.33514e-06 DIIS
DIIS coefficients:  -0.000  -0.000  -0.000  -0.000  -0.000  0.004  0.068  0.929 
    Occupation by irrep:
              A 
    DOCC [     9 ]
    SOCC [     0 ]

   @DF-UKS iter   8:  -131.69294217936729   -1.56038e-09   1.19311e-07 DIIS
DIIS coefficients:  -0.000  -0.000  -0.000  0.000  0.000  -0.002  -0.007  0.238  0.771 
    Occupation by irrep:
              A 
    DOCC [     9 ]
    SOCC [     0 ]

   @DF-UKS iter   9:  -131.69294217938227   -1.49782e-11   3.64431e-08 DIIS
DIIS coefficients:  -0.000  0.000  0.000  0.000  0.000  -0.000  -0.003  0.003  0.098  0.902 
    Occupation by irrep:
              A 
    DOCC [     9 ]
    SOCC [     0 ]

   @DF-UKS iter  10:  -131.69294217938389   -1.62004e-12   4.00575e-09 DIIS

  DF guess converged.

  ==> DirectJK: Integral-Direct J/K Matrices <==

    J tasked:                  Yes
    K tasked:                  Yes
    wK tasked:                  No
    Integrals threads:           1
    Schwarz Cutoff:          1E-12

DIIS coefficients:  1.000 
    Occupation by irrep:
              A 
    DOCC [     9 ]
    SOCC [     0 ]

   @UKS iter  11:  -131.69290375378549   -1.31693e+02   9.24692e-06 DIIS
DIIS coefficients:  -0.042  1.042 
    Occupation by irrep:
              A 
    DOCC [     9 ]
    SOCC [     0 ]

   @UKS iter  12:  -131.69290383966785   -8.58824e-08   6.53871e-07 DIIS
DIIS coefficients:  -0.027  0.588  0.439 
    Occupation by irrep:
              A 
    DOCC [     9 ]
    SOCC [     0 ]

   @UKS iter  13:  -131.69290383982440   -1.56547e-10   6.67850e-07 DIIS
DIIS coefficients:  -0.007  0.121  0.218  0.667 
    Occupation by irrep:
              A 
    DOCC [     9 ]
    SOCC [     0 ]

   @UKS iter  14:  -131.69290384014278   -3.18380e-10   1.65963e-07 DIIS
DIIS coefficients:  -0.002  0.024  0.074  0.285  0.618 
    Occupation by irrep:
              A 
    DOCC [     9 ]
    SOCC [     0 ]

   @UKS iter  15:  -131.69290384016242   -1.96394e-11   3.47043e-08 DIIS
DIIS coefficients:  0.000  -0.006  0.005  0.041  0.303  0.657 
    Occupation by irrep:
              A 
    DOCC [     9 ]
    SOCC [     0 ]

   @UKS iter  16:  -131.69290384016330   -8.81073e-13   1.31029e-08 DIIS
DIIS coefficients:  0.000  -0.002  -0.001  0.003  0.049  0.134  0.816 
    Occupation by irrep:
              A 
    DOCC [     9 ]
    SOCC [     0 ]

   @UKS iter  17:  -131.69290384016344   -1.42109e-13   8.21235e-10 DIIS
  Energy and wave function converged.


  ==> Post-Iterations <==

   @Spin Contamination Metric:  -1.421085472E-14
   @S^2 Expected:                0.000000000E+00
   @S^2 Observed:               -1.421085472E-14
   @S   Expected:                0.000000000E+00
   @S   Observed:                0.000000000E+00

    Orbital Energies [Eh]
    ---------------------

    Alpha Occupied:                                                       

       1A    -19.170216     2A    -14.371926     3A     -1.010371  
       4A     -0.778965     5A     -0.504168     6A     -0.462821  
       7A     -0.382212     8A     -0.317908     9A     -0.212022  

    Alpha Virtual:                                                        

      10A      0.043972    11A      0.062415    12A      0.137110  
      13A      0.151022    14A      0.642568    15A      0.673218  
      16A      0.713046    17A      0.767024    18A      0.794518  
      19A      0.833521    20A      0.934074    21A      0.953298  
      22A      1.016358    23A      1.096421    24A      1.287383  
      25A      1.410023    26A      1.509462    27A      1.597832  
      28A      1.804021    29A      1.830484    30A      1.977381  
      31A      2.114677    32A      2.154662    33A      2.201402  
      34A      2.264412    35A      2.454046    36A      2.534682  
      37A      2.603760    38A      2.750161    39A      2.794664  
      40A      2.855075    41A      3.144173    42A      3.280845  
      43A      3.407898    44A      3.629119    45A      3.915248  

    Beta Occupied:                                                        

       1A    -19.170216     2A    -14.371926     3A     -1.010371  
       4A     -0.778965     5A     -0.504168     6A     -0.462821  
       7A     -0.382212     8A     -0.317908     9A     -0.212022  

    Beta Virtual:                                                         

      10A      0.043972    11A      0.062415    12A      0.137110  
      13A      0.151022    14A      0.642568    15A      0.673218  
      16A      0.713046    17A      0.767024    18A      0.794518  
      19A      0.833521    20A      0.934074    21A      0.953298  
      22A      1.016358    23A      1.096421    24A      1.287383  
      25A      1.410023    26A      1.509462    27A      1.597832  
      28A      1.804021    29A      1.830484    30A      1.977381  
      31A      2.114677    32A      2.154662    33A      2.201402  
      34A      2.264412    35A      2.454046    36A      2.534682  
      37A      2.603760    38A      2.750161    39A      2.794664  
      40A      2.855075    41A      3.144173    42A      3.280845  
      43A      3.407898    44A      3.629119    45A      3.915248  

    Final Occupation by Irrep:
              A 
    DOCC [     9 ]
    SOCC [     0 ]

  @UKS Final Energy:  -131.69290384016344

   => Energetics <=

    Nuclear Repulsion Energy =             37.5010331517560971
    One-Electron Energy =                -254.3788175561223284
    Two-Electron Energy =                  98.5299850911259654
    DFT Exchange-Correlation Energy =     -13.3451045269231692
    Empirical Dispersion Energy =           0.0000000000000000
    VV10 Nonlocal Energy =                  0.0000000000000000
    Total Energy =                       -131.6929038401634386

  UHF NO Occupations:
  HONO-2 :    7  A 2.0000000
  HONO-1 :    8  A 2.0000000
  HONO-0 :    9  A 2.0000000
  LUNO+0 :   10  A 0.0000000
  LUNO+1 :   11  A 0.0000000
  LUNO+2 :   12  A 0.0000000
  LUNO+3 :   13  A 0.0000000


Computation Completed


Properties will be evaluated at   0.000000,   0.000000,   0.000000 [a0]

Properties computed using the SCF density matrix

  Nuclear Dipole Moment: [e a0]
     X:    -1.0595      Y:    -0.4135      Z:    -0.7440

  Electronic Dipole Moment: [e a0]
     X:     0.8107      Y:     0.1165      Z:     0.2152

  Dipole Moment: [e a0]
     X:    -0.2488      Y:    -0.2970      Z:    -0.5287     Total:     0.6555

  Dipole Moment: [D]
     X:    -0.6323      Y:    -0.7549      Z:    -1.3439     Total:     1.6661


*** tstop() called on FACC02D75Y4MD6T.tld at Sun Sep 20 10:30:57 2020
Module time:
	user time   =       3.90 seconds =       0.07 minutes
	system time =       0.11 seconds =       0.00 minutes
	total time  =          4 seconds =       0.07 minutes
Total time:
	user time   =       3.90 seconds =       0.07 minutes
	system time =       0.11 seconds =       0.00 minutes
	total time  =          4 seconds =       0.07 minutes

*** tstart() called on FACC02D75Y4MD6T.tld
*** at Sun Sep 20 10:30:57 2020


         ------------------------------------------------------------
                                   SCF GRAD                          
                          Rob Parrish, Justin Turney,                
                       Andy Simmonett, and Alex Sokolov              
         ------------------------------------------------------------

  ==> Geometry <==

    Molecular point group: c1
    Full point group: C1

    Geometry (in Angstrom), charge = 0, multiplicity = 1:

       Center              X                  Y                   Z               Mass       
    ------------   -----------------  -----------------  -----------------  -----------------
         N           -0.750962418242     0.014819030507     0.026664102395    14.003074004430
         O            0.729037581758     0.014819030507     0.026664102395    15.994914619570
         H            1.079037581758    -0.975130459493     0.026664102395     1.007825032230
         H           -1.107629088242     1.023624700507     0.026664102395     1.007825032230
         H           -1.107629088242    -0.489583809493    -0.846987237605     1.007825032230

           N
              BASIS           6-31G(D_P)           be17c05ec1461ad3097843c20da1040adf86ba79
              DF_BASIS_SCF    (6-31G(D_P) AUX)     8eb73939244d0ff71e080d82475ea73ba87737d3
           O
              BASIS           6-31G(D_P)           ec2d227169b1af6c6a69bc8715bab79dbd7bb644
              DF_BASIS_SCF    (6-31G(D_P) AUX)     b57462463db1b385e39e4428a46364991bcd7673
           H
              BASIS           6-31G(D_P)           902186d0f3205710946c2c15d2c68458d6f6cc2a
              DF_BASIS_SCF    (6-31G(D_P) AUX)     1164366b470d7a66fddaf681ef9d1c28421b3e4a
           H
              BASIS           6-31G(D_P)           902186d0f3205710946c2c15d2c68458d6f6cc2a
              DF_BASIS_SCF    (6-31G(D_P) AUX)     1164366b470d7a66fddaf681ef9d1c28421b3e4a
           H
              BASIS           6-31G(D_P)           902186d0f3205710946c2c15d2c68458d6f6cc2a
              DF_BASIS_SCF    (6-31G(D_P) AUX)     1164366b470d7a66fddaf681ef9d1c28421b3e4a

  Nuclear repulsion =   37.501033151756097

  ==> Basis Set <==

  -AO BASIS SET INFORMATION:
    Name                   = 6-31G(D_P)
    Blend                  = 6-31G(D_P)
    Total number of shells = 21
    Number of primitives   = 45
    Number of AO           = 45
    Number of SO           = 45
    Maximum AM             = 2
    Spherical Harmonics    = FALSE

  -Contraction Scheme:
    Atom   Type   All Primitives // Shells:
   ------ ------ --------------------------
       1     N     10s 4p 1d // 3s 2p 1d 
       2     O     10s 4p 1d // 3s 2p 1d 
       3     H     4s 1p // 2s 1p 
       4     H     4s 1p // 2s 1p 
       5     H     4s 1p // 2s 1p 

  ==> AO Basis Functions <==

    [ 6-31G(D_P) ]
    cartesian
    ****
    N   1
    S   6 1.00
                      4173.51100000           0.00183480
                       627.45790000           0.01399500
                       142.90210000           0.06858700
                        40.23433000           0.23224100
                        12.82021000           0.46907000
                         4.39043700           0.36045500
    S   3 1.00
                        11.62635800          -0.11496100
                         2.71628000          -0.16911800
                         0.77221800           1.14585200
    P   3 1.00
                        11.62635800           0.06758000
                         2.71628000           0.32390700
                         0.77221800           0.74089500
    S   1 1.00
                         0.21203130           1.00000000
    P   1 1.00
                         0.21203130           1.00000000
    D   1 1.00
                         0.80000000           1.00000000
    ****
    O   2
    S   6 1.00
                      5484.67170000           0.00183110
                       825.23495000           0.01395010
                       188.04696000           0.06844510
                        52.96450000           0.23271430
                        16.89757000           0.47019300
                         5.79963530           0.35852090
    S   3 1.00
                        15.53961600          -0.11077750
                         3.59993360          -0.14802630
                         1.01376180           1.13076700
    P   3 1.00
                        15.53961600           0.07087430
                         3.59993360           0.33975280
                         1.01376180           0.72715860
    S   1 1.00
                         0.27000580           1.00000000
    P   1 1.00
                         0.27000580           1.00000000
    D   1 1.00
                         0.80000000           1.00000000
    ****
    H   3
    S   3 1.00
                        18.73113700           0.03349460
                         2.82539370           0.23472695
                         0.64012170           0.81375733
    S   1 1.00
                         0.16127780           1.00000000
    P   1 1.00
                         1.10000000           1.00000000
    ****
    H   4
    S   3 1.00
                        18.73113700           0.03349460
                         2.82539370           0.23472695
                         0.64012170           0.81375733
    S   1 1.00
                         0.16127780           1.00000000
    P   1 1.00
                         1.10000000           1.00000000
    ****
    H   5
    S   3 1.00
                        18.73113700           0.03349460
                         2.82539370           0.23472695
                         0.64012170           0.81375733
    S   1 1.00
                         0.16127780           1.00000000
    P   1 1.00
                         1.10000000           1.00000000
    ****

  ==> DirectJKGrad: Integral-Direct SCF Gradients <==

    Gradient:                    1
    J tasked:                  Yes
    K tasked:                  Yes
    wK tasked:                  No
    Integrals threads:           1
    Schwarz Cutoff:          0E+00

  ==> DFT Potential <==

   => Composite Functional: B3LYP <= 

    B3LYP Hyb-GGA Exchange-Correlation Functional

    P. J. Stephens, F. J. Devlin, C. F. Chabalowski, and M. J. Frisch, J. Phys. Chem. 98, 11623 (1994)

    Deriv               =              1
    GGA                 =           TRUE
    Meta                =          FALSE

    Exchange Hybrid     =           TRUE
    MP2 Hybrid          =          FALSE

   => Exchange Functionals <=

    0.0800   Slater exchange
    0.7200         Becke 88

   => Exact (HF) Exchange <=

    0.2000               HF 

   => Correlation Functionals <=

    0.1900   Vosko, Wilk & Nusair (VWN5_RPA)
    0.8100   Lee, Yang & Parr

   => XC_HYB_GGA_XC_B3LYP Functional <=

    B3LYP
    P. J. Stephens, F. J. Devlin, C. F. Chabalowski, and M. J. Frisch, J. Phys. Chem. 98, 11623 (1994)
    GGA   =           TRUE
    Meta  =          FALSE
    LRC   =          FALSE
    Alpha =   1.000000E+00
    Omega =   0.000000E+00

    > Parameters <


   => Molecular Quadrature <=

    Radial Scheme          =       TREUTLER
    Pruning Scheme         =           FLAT
    Nuclear Scheme         =       TREUTLER

    BS radius alpha        =              1
    Pruning alpha          =              1
    Radial Points          =             75
    Spherical Points       =            302
    Total Points           =         109474
    Total Blocks           =            883
    Max Points             =            255
    Max Functions          =             45


  -Nuclear Gradient:
     Atom            X                  Y                   Z
    ------   -----------------  -----------------  -----------------
       1        6.416106330816     0.591648162836    -1.397935450934
       2       -7.376261008527    -1.792937632090    -0.212706272574
       3       -1.143203863549     2.162503814701    -0.017603075329
       4        1.041425114124    -1.960767778753    -0.045860204094
       5        1.061933427135     0.999553433305     1.674105002930


  -Core Hamiltonian Gradient:
     Atom            X                  Y                   Z
    ------   -----------------  -----------------  -----------------
       1      -11.385706083037    -1.570959645177     3.637721222112
       2       13.768708962375     4.650098029443     0.320202908104
       3        2.877755356663    -5.470872989718    -0.018290368698
       4       -2.717484449103     5.076933103268     0.197169131547
       5       -2.543273786900    -2.685198497817    -4.136802893065


  -Overlap Gradient:
     Atom            X                  Y                   Z
    ------   -----------------  -----------------  -----------------
       1        0.017483542298     0.108664569975    -0.167679331228
       2       -0.079587111725    -0.218183608045     0.010918401546
       3       -0.079110788126     0.207455346548     0.000776375208
       4        0.073898311819    -0.181173697619     0.004852393971
       5        0.067316045735     0.083237389140     0.151132160502


  -Coulomb Gradient:
     Atom            X                  Y                   Z
    ------   -----------------  -----------------  -----------------
       1        4.907910114611     0.999048503605    -2.280824255810
       2       -6.360274043143    -2.885206921163    -0.105169718636
       3       -1.750395228320     3.340263134326     0.033710706305
       4        1.696668171531    -3.179600471254    -0.160835756744
       5        1.506090985320     1.725495754485     2.513119024885


  -Exchange Gradient:
     Atom            X                  Y                   Z
    ------   -----------------  -----------------  -----------------
       1        0.013823488552    -0.028007185735     0.054138262384
       2        0.011151772799     0.071139827041    -0.000210049004
       3        0.034261333255    -0.075607178444    -0.000885646804
       4       -0.031426238914     0.070237223702     0.003134143193
       5       -0.027810355692    -0.037762686563    -0.056176709770


  -XC Gradient:
     Atom            X                  Y                   Z
    ------   -----------------  -----------------  -----------------
       1        0.046494045163    -0.083970450938     0.160338417135
       2        0.029281722345     0.204880073239    -0.000757184438
       3        0.096425606330    -0.216790443599    -0.002312847499
       4       -0.091289624155     0.207018614524     0.008952256571
       5       -0.080899899963    -0.111137107479    -0.166222011643


  -Total Gradient:
     Atom            X                  Y                   Z
    ------   -----------------  -----------------  -----------------
       1        0.016111438403     0.016423954567     0.005758863660
       2       -0.006979705877     0.029789768427     0.012278084999
       3        0.035732416253    -0.053048316186    -0.004604856815
       4       -0.028208714698     0.032646993867     0.007411964444
       5       -0.016643584364    -0.025811714929    -0.020845426161


*** tstop() called on FACC02D75Y4MD6T.tld at Sun Sep 20 10:30:58 2020
Module time:
	user time   =       0.73 seconds =       0.01 minutes
	system time =       0.01 seconds =       0.00 minutes
	total time  =          1 seconds =       0.02 minutes
Total time:
	user time   =       4.63 seconds =       0.08 minutes
	system time =       0.12 seconds =       0.00 minutes
	total time  =          5 seconds =       0.08 minutes

			-----------------------------------------
			 OPTKING 2.0: for geometry optimizations 
			  - R.A. King,  Bethel University        
			-----------------------------------------
dynamic level          =                  0
conv_max_force         =           3.00e-04
conv_rms_force         =           0.00e+00
conv_max_DE            =           1.00e-06
conv_max_disp          =           1.20e-03
conv_rms_disp          =           0.00e+00
SD Hessian             =           1.00e+00
scale_connectivity     =           1.30e+00
interfragment_scale_connectivity =           1.80e+00
fragment_mode          =             single
interfragment_mode        =              fixed
intcos_generate_exit   =              false
print_params           =              false
print_lvl              = 3
ensure_bt_convergence =             false
rfo_follow_root        =              false
rfo_root               =                  0
rfo_normalization_max  =           1.00e+02
rsrfo_alpha_max        =          1.000e+08
step_type              =                RFO
opt. coordinates       = Redundant Internals
linesearch_static_N    =                  8
linesearch_static_min  =          1.000e-03
linesearch_static_max  =          1.000e-01
consecutive_backsteps  =                  0
intrafragment_H        =           Schlegel
interfragment_H        =            Default
H_update               =               BFGS
H_update_use_last      =                  2
freeze_intrafragment   =              false
intrafragment_step_limit=          5.00e-01
interfragment_step_limit=          5.00e-01
add_auxiliary_bonds   =               true
H_guess_every         =              false
auxiliary_bond_factor =          2.50e+00
H_update_limit         =               true
H_update_limit_scale   =           5.00e-01
H_update_limit_max     =           1.00e+00
H_update_den_tol       =           1.00e-07
interfragment_distance_inverse=       false
write_final_step_geometry=            false
maximum_H_bond_distance=           4.30e+00
read_cartesian_H       =              false
fb_fragments          =              false
fb_fragments_only     =              false
frozen_distance: 
frozen_bend: 
frozen_dihedral: 
frozen_cartesian: 
fixed_distance: 
fixed_bend: 
fixed_dihedral: 
print_trajectory_xyz_file =              false

	Internal coordinates to be generated automatically.
	Detected frag 1 with atoms:  1 2 3 4 5
	---Fragment 1 Bond Connectivity---
	 1 : 2 4 5
	 2 : 1 3
	 3 : 2
	 4 : 1
	 5 : 1

	---Fragment 1 Geometry and Gradient---
	 N          -1.4191133010        0.0280039091        0.0503878509
	 O           1.3776813647        0.0280039091        0.0503878509
	 H           2.0390855086       -1.8427295050        0.0503878509
	 H          -2.0931156254        1.9343703392        0.0503878509
	 H          -2.0931156254       -0.9251793154       -1.6005739108
	             0.0161114384        0.0164239546        0.0057588637
	            -0.0069797059        0.0297897684        0.0122780850
	             0.0357324163       -0.0530483162       -0.0046048568
	            -0.0282087147        0.0326469939        0.0074119644
	            -0.0166435844       -0.0258117149       -0.0208454262

	Previous optimization step data not found.  Starting new optimization.

	---Fragment 1 Intrafragment Coordinates---
	 - Coordinate -           - BOHR/RAD -       - ANG/DEG -
	 R(1,2)           =         2.796795	       1.480000
	 R(1,4)           =         2.022007	       1.070000
	 R(1,5)           =         2.022007	       1.070000
	 R(2,3)           =         1.984212	       1.050000
	 B(1,2,3)         =         1.910633	     109.471221
	 B(2,1,4)         =         1.910633	     109.471221
	 B(2,1,5)         =         1.910633	     109.471221
	 B(4,1,5)         =         1.910633	     109.471221
	 D(3,2,1,4)       =         3.141593	     180.000000
	 D(3,2,1,5)       =        -1.047198	     -60.000000

	Current energy   :      -131.6929038402

B matrix
 -1.000000  0.000000  0.000000  1.000000  0.000000  0.000000  0.000000  0.000000
  0.000000  0.000000  0.000000  0.000000  0.000000  0.000000  0.000000
  0.333333 -0.942809  0.000000  0.000000  0.000000  0.000000  0.000000  0.000000
  0.000000 -0.333333  0.942809  0.000000  0.000000  0.000000  0.000000
  0.333333  0.471405  0.816497  0.000000  0.000000  0.000000  0.000000  0.000000
  0.000000  0.000000  0.000000  0.000000 -0.333333 -0.471405 -0.816497
  0.000000  0.000000  0.000000 -0.333333  0.942809  0.000000  0.333333 -0.942809
  0.000000  0.000000  0.000000  0.000000  0.000000  0.000000  0.000000
  0.000000  0.357552  0.000000 -0.475155 -0.525545  0.000000  0.475155  0.167993
  0.000000  0.000000  0.000000  0.000000  0.000000  0.000000  0.000000
  0.466274  0.522405  0.000000  0.000000 -0.357552  0.000000  0.000000  0.000000
  0.000000 -0.466274 -0.164853  0.000000  0.000000  0.000000  0.000000
  0.466274 -0.261202 -0.452416  0.000000  0.178776  0.309649  0.000000  0.000000
  0.000000  0.000000  0.000000  0.000000 -0.466274  0.082426  0.142767
 -0.466274  0.329705 -0.571067  0.000000  0.000000  0.000000  0.000000  0.000000
  0.000000  0.233137  0.082426  0.428300  0.233137 -0.412132  0.142767
  0.000000  0.000000  0.524558  0.000000  0.000000  0.534550  0.000000  0.000000
 -0.534550  0.000000  0.000000 -0.524558  0.000000  0.000000  0.000000
  0.000000  0.563758 -0.451900  0.000000 -0.109478  0.724170  0.000000  0.000000
 -0.534550  0.000000  0.000000  0.000000  0.000000 -0.454281  0.262279
Internal forces in au
  -0.028746675475399  -0.040183827222839  -0.034736968268579  -0.061925507413353
  -0.031751930347285  -0.033324954801908  -0.012415662275513  -0.003100522222164
   0.011598056548316  -0.020209585666624
	Generating empirical Hessian (Schlegel '84) for each fragment.
diagonal Hessian values for simple coordinates.
  0.345696  0.372301  0.372301  0.398767  0.160000  0.160000  0.160000  0.160000
  0.002300  0.002300

Initial Hessian guess
  0.345696  0.000000  0.000000  0.000000  0.000000  0.000000  0.000000  0.000000
  0.000000  0.000000
  0.000000  0.372301  0.000000  0.000000  0.000000  0.000000  0.000000  0.000000
  0.000000  0.000000
  0.000000  0.000000  0.372301  0.000000  0.000000  0.000000  0.000000  0.000000
  0.000000  0.000000
  0.000000  0.000000  0.000000  0.398767  0.000000  0.000000  0.000000  0.000000
  0.000000  0.000000
  0.000000  0.000000  0.000000  0.000000  0.160000  0.000000  0.000000  0.000000
  0.000000  0.000000
  0.000000  0.000000  0.000000  0.000000  0.000000  0.160000  0.000000  0.000000
  0.000000  0.000000
  0.000000  0.000000  0.000000  0.000000  0.000000  0.000000  0.160000  0.000000
  0.000000  0.000000
  0.000000  0.000000  0.000000  0.000000  0.000000  0.000000  0.000000  0.160000
  0.000000  0.000000
  0.000000  0.000000  0.000000  0.000000  0.000000  0.000000  0.000000  0.000000
  0.002300  0.000000
  0.000000  0.000000  0.000000  0.000000  0.000000  0.000000  0.000000  0.000000
  0.000000  0.002300
	Projection matrix for redundancies.
  1.000000  0.000000 -0.000000 -0.000000 -0.000000 -0.000000 -0.000000  0.000000
  0.000000  0.000000
 -0.000000  1.000000 -0.000000  0.000000  0.000000 -0.000000  0.000000  0.000000
 -0.000000  0.000000
 -0.000000 -0.000000  1.000000 -0.000000 -0.000000  0.000000 -0.000000 -0.000000
  0.000000  0.000000
  0.000000 -0.000000  0.000000  1.000000  0.000000 -0.000000  0.000000 -0.000000
 -0.000000 -0.000000
  0.000000  0.000000 -0.000000  0.000000  1.000000  0.000000  0.000000  0.000000
  0.000000 -0.000000
  0.000000  0.000000  0.000000  0.000000  0.000000  0.911765 -0.088235 -0.176471
 -0.144088  0.144088
 -0.000000 -0.000000 -0.000000  0.000000  0.000000 -0.088235  0.911765 -0.176471
 -0.144088  0.144088
  0.000000 -0.000000 -0.000000 -0.000000  0.000000 -0.176471 -0.176471  0.647059
 -0.288175  0.288175
 -0.000000 -0.000000  0.000000 -0.000000 -0.000000 -0.144088 -0.144088 -0.288175
  0.764706  0.235294
  0.000000  0.000000 -0.000000 -0.000000  0.000000  0.144088  0.144088  0.288175
  0.235294  0.764706
Constraint matrix
  0.000000  0.000000  0.000000  0.000000  0.000000  0.000000  0.000000  0.000000
  0.000000  0.000000
  0.000000  0.000000  0.000000  0.000000  0.000000  0.000000  0.000000  0.000000
  0.000000  0.000000
  0.000000  0.000000  0.000000  0.000000  0.000000  0.000000  0.000000  0.000000
  0.000000  0.000000
  0.000000  0.000000  0.000000  0.000000  0.000000  0.000000  0.000000  0.000000
  0.000000  0.000000
  0.000000  0.000000  0.000000  0.000000  0.000000  0.000000  0.000000  0.000000
  0.000000  0.000000
  0.000000  0.000000  0.000000  0.000000  0.000000  0.000000  0.000000  0.000000
  0.000000  0.000000
  0.000000  0.000000  0.000000  0.000000  0.000000  0.000000  0.000000  0.000000
  0.000000  0.000000
  0.000000  0.000000  0.000000  0.000000  0.000000  0.000000  0.000000  0.000000
  0.000000  0.000000
  0.000000  0.000000  0.000000  0.000000  0.000000  0.000000  0.000000  0.000000
  0.000000  0.000000
  0.000000  0.000000  0.000000  0.000000  0.000000  0.000000  0.000000  0.000000
  0.000000  0.000000
	Internal forces in au, after projection of redundancies and constraints.
 -0.028747 -0.040184 -0.034737 -0.061926 -0.031752 -0.033325 -0.012416 -0.003101
  0.011598 -0.020210
Projected (PHP) Hessian matrix
  0.345696  0.000000 -0.000000 -0.000000 -0.000000 -0.000000 -0.000000  0.000000
  0.000000  0.000000
 -0.000000  0.372301 -0.000000  0.000000  0.000000 -0.000000  0.000000  0.000000
 -0.000000  0.000000
 -0.000000 -0.000000  0.372301 -0.000000 -0.000000  0.000000 -0.000000 -0.000000
  0.000000  0.000000
  0.000000 -0.000000  0.000000  0.398767  0.000000 -0.000000  0.000000 -0.000000
 -0.000000 -0.000000
  0.000000  0.000000 -0.000000  0.000000  0.160000  0.000000  0.000000 -0.000000
  0.000000 -0.000000
  0.000000  0.000000  0.000000  0.000000 -0.000000  0.139334 -0.020666 -0.041331
 -0.011024  0.011024
 -0.000000 -0.000000 -0.000000  0.000000  0.000000 -0.020666  0.139334 -0.041331
 -0.011024  0.011024
  0.000000 -0.000000 -0.000000 -0.000000  0.000000 -0.041331 -0.041331  0.077337
 -0.022049  0.022049
 -0.000000 -0.000000  0.000000 -0.000000 -0.000000 -0.011024 -0.011024 -0.022049
  0.021403 -0.019103
  0.000000  0.000000 -0.000000 -0.000000  0.000000  0.011024  0.011024  0.022049
 -0.019103  0.021403
	Taking RFO optimization step.
Eigenvalues of scaled RFO matrix.
 -0.036594 -0.000000  0.003080  0.083728  0.160000  0.160000
  0.169436  0.347282  0.372301  0.377703  0.410941
First eigenvector (unnormalized) of scaled RFO matrix.
  0.068950  0.090111  0.077897  0.130424  0.148094  0.185235  0.087712  0.074069
 -0.027421  0.230439 -0.916935
	Going to follow RFO solution 1.
	Using RFO vector 1.
	rfo_root is 1

Scaled RFO eigenvalue 1:   -0.0365942380 (or 2*-0.0182971190  )
eigenvector:
 -0.075196 -0.098274 -0.084953 -0.142239 -0.161510 -0.202015 -0.095657 -0.080779
  0.029905 -0.251314  1.000000

Projection of redundancies out of step:
	Original dq     Projected dq     Difference
	   -0.075196       -0.075196       0.000000
	   -0.098274       -0.098274       0.000000
	   -0.084953       -0.084953       0.000000
	   -0.142239       -0.142239      -0.000000
	   -0.161510       -0.161510       0.000000
	   -0.202015       -0.202015      -0.000000
	   -0.095657       -0.095657       0.000000
	   -0.080779       -0.080779       0.000000
	    0.029905        0.029905      -0.000000
	   -0.251314       -0.251314       0.000000
dq:
 -0.075196 -0.098274 -0.084953 -0.142239 -0.161510 -0.202015 -0.095657 -0.080779
  0.029905 -0.251314
fq:
 -0.028747 -0.040184 -0.034737 -0.061926 -0.031752 -0.033325 -0.012416 -0.003101
  0.011598 -0.020210
	lambda calculated by (dq^t).(-f)     =        -0.0365942380
	Analytic derivative d(norm)/d(alpha) =        -0.1005667114
	Final scaled step dq:
 -0.075196 -0.098274 -0.084953 -0.142239 -0.161510 -0.202015 -0.095657 -0.080779
  0.029905 -0.251314
	Norm of target step-size    0.43518
	Projected energy change by RFO approximation:        -0.0423748376

	Back-transformation to cartesian coordinates...
	 In displace_util 
	       Original         Target           Dq
	   2.7967946657   2.7215986794  -0.0751959862
	   2.0220069483   1.9237328215  -0.0982741269
	   2.0220069563   1.9370537424  -0.0849532140
	   1.9842124252   1.8419730100  -0.1422394152
	   1.9106332374   1.7491232630  -0.1615099744
	   1.9106332406   1.7086181421  -0.2020150985
	   1.9106332392   1.8149757468  -0.0956574924
	   1.9106332352   1.8298545646  -0.0807786706
	   3.1415926536   3.1714980984   0.0299054448
	  -1.0471975480  -1.2985118585  -0.2513143105
	---------------------------------------------------
	 Iter        RMS(dx)        Max(dx)        RMS(dq) 
	---------------------------------------------------
	    1        1.4e-01        2.8e-01        1.4e-02
	    2        5.9e-02        1.0e-01        4.2e-03
	    3        5.5e-02        1.0e-01        3.7e-03
	    4        3.8e-02        7.2e-02        2.5e-03
	    5        2.9e-02        5.2e-02        1.8e-03
	    6        2.1e-02        3.9e-02        1.3e-03
	    7        1.6e-02        2.9e-02        9.6e-04
	    8        1.2e-02        2.2e-02        7.1e-04
	    9        8.9e-03        1.6e-02        5.3e-04
	   10        6.7e-03        1.2e-02        4.0e-04
	   11        5.0e-03        9.1e-03        3.0e-04
	   12        3.8e-03        6.9e-03        2.2e-04
	   13        2.8e-03        5.1e-03        1.7e-04
	   14        2.1e-03        3.9e-03        1.3e-04
	   15        1.6e-03        2.9e-03        9.4e-05
	   16        1.2e-03        2.2e-03        7.0e-05
	   17        8.9e-04        1.6e-03        5.3e-05
	   18        6.7e-04        1.2e-03        4.0e-05
	   19        5.0e-04        9.1e-04        3.0e-05
	   20        3.7e-04        6.8e-04        2.2e-05
	   21        2.8e-04        5.1e-04        1.7e-05
	   22        2.1e-04        3.8e-04        1.2e-05
	   23        1.6e-04        2.9e-04        9.4e-06
	   24        1.2e-04        2.2e-04        7.0e-06
	   25        8.9e-05        1.6e-04        5.3e-06
	   26        6.7e-05        1.2e-04        3.9e-06
	---------------------------------------------------

	Report of back-transformation:
	  int       q_target          Error
	-----------------------------------
	    1   2.7215986794   0.0000000073
	    2   1.9237328215   0.0000000012
	    3   1.9370537424   0.0000000041
	    4   1.8419730100   0.0000000010
	    5   1.7491232630  -0.0000040579
	    6   1.7086181421  -0.0000048696
	    7   1.8149757468   0.0000022008
	    8   1.8298545646   0.0000105176
	    9   3.1714980984  -0.0000000000
	   10  -1.2985118585  -0.0000000020

	Could not converge backtransformation.
	Using first guess instead.

	--- Internal Coordinate Step in ANG or DEG, aJ/ANG or AJ/DEG ---
	 ---------------------------------------------------------------------------
	   Coordinate                Previous        Force       Change         New 
	   ----------                --------       ------       ------       ------
	    1 R(1,2)          =      1.480000    -0.236836    -0.029919     1.450081
	    2 R(1,4)          =      1.070000    -0.331063    -0.040474     1.029526
	    3 R(1,5)          =      1.070000    -0.286188    -0.034103     1.035897
	    4 R(2,3)          =      1.050000    -0.510187    -0.070259     0.979741
	    5 B(1,2,3)        =    109.471221    -0.002416   -10.016552    99.454668
	    6 B(2,1,4)        =    109.471221    -0.002536   -12.442187    97.029034
	    7 B(2,1,5)        =    109.471221    -0.000945    -6.723609   102.747612
	    8 B(4,1,5)        =    109.471221    -0.000236    -6.211448   103.259772
	    9 D(3,2,1,4)      =    180.000000     0.000202     1.384978   181.384978
	   10 D(3,2,1,5)      =    -60.000000    -0.000353   -13.257700   -73.257700
	 ---------------------------------------------------------------------------
	Successfully symmetrized geometry.
Symmetrized geometry
 -1.434571 -0.125155  0.167763
  1.287028  0.108933 -0.049265
  1.755455 -1.679161  0.056258
 -1.850260  1.768303  0.003220
 -1.946229 -0.850451 -1.576999

  ==> Convergence Check <==

  Measures of convergence in internal coordinates in au.
  Criteria marked as inactive (o), active & met (*), and active & unmet ( ).
  --------------------------------------------------------------------------------------------- ~
   Step     Total Energy     Delta E     MAX Force     RMS Force      MAX Disp      RMS Disp    ~
  --------------------------------------------------------------------------------------------- ~
    Convergence Criteria    1.00e-06 *    3.00e-04 *             o    1.20e-03 *             o  ~
  --------------------------------------------------------------------------------------------- ~
      1    -131.69290384   -1.32e+02      6.19e-02      3.21e-02 o    2.31e-01      1.37e-01 o  ~
  ---------------------------------------------------------------------------------------------

	Writing optimization data to binary file.
	Structure for next step:
	Cartesian Geometry (in Angstrom)
	    N    -0.7591420850  -0.0662291816   0.0887765464
	    O     0.6810659071   0.0576448578  -0.0260696833
	    H     0.9289466982  -0.8885734813   0.0297706913
	    H    -0.9791156663   0.9357457638   0.0017037639
	    H    -1.0299002806  -0.4500394646  -0.8345121435
			--------------------------
			 OPTKING Finished Execution 
			--------------------------

    Structure for next step:
    Molecular point group: c1
    Full point group: C1

    Geometry (in Angstrom), charge = 0, multiplicity = 1:

    N           -0.734150688524    -0.053770400889     0.088266554021
    O            0.706057309223     0.070103639055    -0.026579676135
    H            0.953938101287    -0.876114703838     0.029260698611
    H           -0.954124270653     0.948204548484     0.001193771173
    H           -1.004908885178    -0.437580685343    -0.835022139515

gradient() will perform analytic gradient computation.

*** tstart() called on FACC02D75Y4MD6T.tld
*** at Sun Sep 20 10:30:58 2020

   => Loading Basis Set <=

    Name: 6-31G(D_P)
    Role: ORBITAL
    Keyword: BASIS
    atoms 1   entry N          line   132 file /Users/blais.ch/anaconda3/envs/rmg_env/share/psi4/basis/6-31g_d_p_.gbs 
    atoms 2   entry O          line   149 file /Users/blais.ch/anaconda3/envs/rmg_env/share/psi4/basis/6-31g_d_p_.gbs 
    atoms 3-5 entry H          line    44 file /Users/blais.ch/anaconda3/envs/rmg_env/share/psi4/basis/6-31g_d_p_.gbs 


         ---------------------------------------------------------
                                   SCF
               by Justin Turney, Rob Parrish, Andy Simmonett
                          and Daniel G. A. Smith
                              UKS Reference
                        1 Threads,    976 MiB Core
         ---------------------------------------------------------

  ==> Geometry <==

    Molecular point group: c1
    Full point group: C1

    Geometry (in Angstrom), charge = 0, multiplicity = 1:

       Center              X                  Y                   Z               Mass       
    ------------   -----------------  -----------------  -----------------  -----------------
         N           -0.734150688524    -0.053770400889     0.088266554021    14.003074004430
         O            0.706057309223     0.070103639055    -0.026579676135    15.994914619570
         H            0.953938101287    -0.876114703838     0.029260698611     1.007825032230
         H           -0.954124270653     0.948204548484     0.001193771173     1.007825032230
         H           -1.004908885178    -0.437580685343    -0.835022139515     1.007825032230

           N
              BASIS           6-31G(D_P)           be17c05ec1461ad3097843c20da1040adf86ba79
              DF_BASIS_SCF    (6-31G(D_P) AUX)     8eb73939244d0ff71e080d82475ea73ba87737d3
           O
              BASIS           6-31G(D_P)           ec2d227169b1af6c6a69bc8715bab79dbd7bb644
              DF_BASIS_SCF    (6-31G(D_P) AUX)     b57462463db1b385e39e4428a46364991bcd7673
           H
              BASIS           6-31G(D_P)           902186d0f3205710946c2c15d2c68458d6f6cc2a
              DF_BASIS_SCF    (6-31G(D_P) AUX)     1164366b470d7a66fddaf681ef9d1c28421b3e4a
           H
              BASIS           6-31G(D_P)           902186d0f3205710946c2c15d2c68458d6f6cc2a
              DF_BASIS_SCF    (6-31G(D_P) AUX)     1164366b470d7a66fddaf681ef9d1c28421b3e4a
           H
              BASIS           6-31G(D_P)           902186d0f3205710946c2c15d2c68458d6f6cc2a
              DF_BASIS_SCF    (6-31G(D_P) AUX)     1164366b470d7a66fddaf681ef9d1c28421b3e4a

  Running in c1 symmetry.

  Rotational constants: A =      6.00061  B =      0.88042  C =      0.82547 [cm^-1]
  Rotational constants: A = 179893.72991  B =  26394.33085  C =  24747.07217 [MHz]
  Nuclear repulsion =   39.086563934170997

  Charge       = 0
  Multiplicity = 1
  Electrons    = 18
  Nalpha       = 9
  Nbeta        = 9

  ==> Algorithm <==

  SCF Algorithm Type is DIRECT.
  DIIS enabled.
  MOM disabled.
  Fractional occupation disabled.
  Guess Type is READ.
  Energy threshold   = 1.00e-08
  Density threshold  = 1.00e-08
  Integral threshold = 0.00e+00

  ==> Primary Basis <==

  -AO BASIS SET INFORMATION:
    Name                   = 6-31G(D_P)
    Blend                  = 6-31G(D_P)
    Total number of shells = 21
    Number of primitives   = 45
    Number of AO           = 45
    Number of SO           = 45
    Maximum AM             = 2
    Spherical Harmonics    = FALSE

  -Contraction Scheme:
    Atom   Type   All Primitives // Shells:
   ------ ------ --------------------------
       1     N     10s 4p 1d // 3s 2p 1d 
       2     O     10s 4p 1d // 3s 2p 1d 
       3     H     4s 1p // 2s 1p 
       4     H     4s 1p // 2s 1p 
       5     H     4s 1p // 2s 1p 

  ==> AO Basis Functions <==

    [ 6-31G(D_P) ]
    cartesian
    ****
    N   1
    S   6 1.00
                      4173.51100000           0.00183480
                       627.45790000           0.01399500
                       142.90210000           0.06858700
                        40.23433000           0.23224100
                        12.82021000           0.46907000
                         4.39043700           0.36045500
    S   3 1.00
                        11.62635800          -0.11496100
                         2.71628000          -0.16911800
                         0.77221800           1.14585200
    P   3 1.00
                        11.62635800           0.06758000
                         2.71628000           0.32390700
                         0.77221800           0.74089500
    S   1 1.00
                         0.21203130           1.00000000
    P   1 1.00
                         0.21203130           1.00000000
    D   1 1.00
                         0.80000000           1.00000000
    ****
    O   2
    S   6 1.00
                      5484.67170000           0.00183110
                       825.23495000           0.01395010
                       188.04696000           0.06844510
                        52.96450000           0.23271430
                        16.89757000           0.47019300
                         5.79963530           0.35852090
    S   3 1.00
                        15.53961600          -0.11077750
                         3.59993360          -0.14802630
                         1.01376180           1.13076700
    P   3 1.00
                        15.53961600           0.07087430
                         3.59993360           0.33975280
                         1.01376180           0.72715860
    S   1 1.00
                         0.27000580           1.00000000
    P   1 1.00
                         0.27000580           1.00000000
    D   1 1.00
                         0.80000000           1.00000000
    ****
    H   3
    S   3 1.00
                        18.73113700           0.03349460
                         2.82539370           0.23472695
                         0.64012170           0.81375733
    S   1 1.00
                         0.16127780           1.00000000
    P   1 1.00
                         1.10000000           1.00000000
    ****
    H   4
    S   3 1.00
                        18.73113700           0.03349460
                         2.82539370           0.23472695
                         0.64012170           0.81375733
    S   1 1.00
                         0.16127780           1.00000000
    P   1 1.00
                         1.10000000           1.00000000
    ****
    H   5
    S   3 1.00
                        18.73113700           0.03349460
                         2.82539370           0.23472695
                         0.64012170           0.81375733
    S   1 1.00
                         0.16127780           1.00000000
    P   1 1.00
                         1.10000000           1.00000000
    ****

  ==> DFT Potential <==

   => Composite Functional: B3LYP <= 

    B3LYP Hyb-GGA Exchange-Correlation Functional

    P. J. Stephens, F. J. Devlin, C. F. Chabalowski, and M. J. Frisch, J. Phys. Chem. 98, 11623 (1994)

    Deriv               =              1
    GGA                 =           TRUE
    Meta                =          FALSE

    Exchange Hybrid     =           TRUE
    MP2 Hybrid          =          FALSE

   => Exchange Functionals <=

    0.0800   Slater exchange
    0.7200         Becke 88

   => Exact (HF) Exchange <=

    0.2000               HF 

   => Correlation Functionals <=

    0.1900   Vosko, Wilk & Nusair (VWN5_RPA)
    0.8100   Lee, Yang & Parr

   => XC_HYB_GGA_XC_B3LYP Functional <=

    B3LYP
    P. J. Stephens, F. J. Devlin, C. F. Chabalowski, and M. J. Frisch, J. Phys. Chem. 98, 11623 (1994)
    GGA   =           TRUE
    Meta  =          FALSE
    LRC   =          FALSE
    Alpha =   1.000000E+00
    Omega =   0.000000E+00

    > Parameters <


   => Molecular Quadrature <=

    Radial Scheme          =       TREUTLER
    Pruning Scheme         =           FLAT
    Nuclear Scheme         =       TREUTLER

    BS radius alpha        =              1
    Pruning alpha          =              1
    Radial Points          =             75
    Spherical Points       =            302
    Total Points           =         109401
    Total Blocks           =            877
    Max Points             =            256
    Max Functions          =             45

   => Loading Basis Set <=

    Name: (6-31G(D_P) AUX)
    Role: JKFIT
    Keyword: DF_BASIS_SCF
    atoms 1   entry N          line   171 file /Users/blais.ch/anaconda3/envs/rmg_env/share/psi4/basis/cc-pvdz-jkfit.gbs 
    atoms 2   entry O          line   221 file /Users/blais.ch/anaconda3/envs/rmg_env/share/psi4/basis/cc-pvdz-jkfit.gbs 
    atoms 3-5 entry H          line    51 file /Users/blais.ch/anaconda3/envs/rmg_env/share/psi4/basis/cc-pvdz-jkfit.gbs 

   => Loading Basis Set <=

    Name: 6-31G(D_P)
    Role: ORBITAL
    Keyword: BASIS
    atoms 1   entry N          line   132 file /Users/blais.ch/anaconda3/envs/rmg_env/share/psi4/basis/6-31g_d_p_.gbs 
    atoms 2   entry O          line   149 file /Users/blais.ch/anaconda3/envs/rmg_env/share/psi4/basis/6-31g_d_p_.gbs 
    atoms 3-5 entry H          line    44 file /Users/blais.ch/anaconda3/envs/rmg_env/share/psi4/basis/6-31g_d_p_.gbs 

  Reading orbitals from file 180, no projection.

  Starting with a DF guess...

  ==> Pre-Iterations <==

   -------------------------------------------------------
    Irrep   Nso     Nmo     Nalpha   Nbeta   Ndocc  Nsocc
   -------------------------------------------------------
     A         45      45       0       0       0       0
   -------------------------------------------------------
    Total      45      45       9       9       9       0
   -------------------------------------------------------

  ==> Integral Setup <==

  DFHelper Memory: AOs need 0.004 GiB; user supplied 0.584 GiB. Using in-core AOs.

  ==> MemDFJK: Density-Fitted J/K Matrices <==

    J tasked:                   Yes
    K tasked:                   Yes
    wK tasked:                   No
    OpenMP threads:               1
    Memory [MiB]:               597
    Algorithm:                 Core
    Schwarz Cutoff:           1E-12
    Mask sparsity (%):       0.0000
    Fitting Condition:        1E-10

   => Auxiliary Basis Set <=

  -AO BASIS SET INFORMATION:
    Name                   = (6-31G(D_P) AUX)
    Blend                  = CC-PVDZ-JKFIT
    Total number of shells = 75
    Number of primitives   = 75
    Number of AO           = 237
    Number of SO           = 237
    Maximum AM             = 3
    Spherical Harmonics    = FALSE

  -Contraction Scheme:
    Atom   Type   All Primitives // Shells:
   ------ ------ --------------------------
       1     N     10s 7p 5d 2f // 10s 7p 5d 2f 
       2     O     10s 7p 5d 2f // 10s 7p 5d 2f 
       3     H     4s 3p 2d // 4s 3p 2d 
       4     H     4s 3p 2d // 4s 3p 2d 
       5     H     4s 3p 2d // 4s 3p 2d 

  ==> AO Basis Functions <==

    [ (6-31G(D_P) AUX) ]
    cartesian
    ****
    N   1
    S   1 1.00
                      1102.86224530           1.00000000
    S   1 1.00
                       370.98041153           1.00000000
    S   1 1.00
                       136.73555938           1.00000000
    S   1 1.00
                        50.75587192           1.00000000
    S   1 1.00
                        20.53565610           1.00000000
    S   1 1.00
                         7.83187372           1.00000000
    S   1 1.00
                         3.47840639           1.00000000
    S   1 1.00
                         1.45528566           1.00000000
    S   1 1.00
                         0.63068989           1.00000000
    S   1 1.00
                         0.27276596           1.00000000
    P   1 1.00
                        93.54095407           1.00000000
    P   1 1.00
                        29.52401953           1.00000000
    P   1 1.00
                        10.91750299           1.00000000
    P   1 1.00
                         4.34492890           1.00000000
    P   1 1.00
                         1.82169126           1.00000000
    P   1 1.00
                         0.75792424           1.00000000
    P   1 1.00
                         0.28241469           1.00000000
    D   1 1.00
                        16.41937893           1.00000000
    D   1 1.00
                         5.01040494           1.00000000
    D   1 1.00
                         1.97939719           1.00000000
    D   1 1.00
                         0.78495772           1.00000000
    D   1 1.00
                         0.28954066           1.00000000
    F   1 1.00
                         1.79354240           1.00000000
    F   1 1.00
                         0.60854240           1.00000000
    ****
    O   2
    S   1 1.00
                      1517.86675060           1.00000000
    S   1 1.00
                       489.67952008           1.00000000
    S   1 1.00
                       176.72118665           1.00000000
    S   1 1.00
                        63.79223314           1.00000000
    S   1 1.00
                        25.36649913           1.00000000
    S   1 1.00
                         9.91354912           1.00000000
    S   1 1.00
                         4.46453066           1.00000000
    S   1 1.00
                         1.80177437           1.00000000
    S   1 1.00
                         0.80789711           1.00000000
    S   1 1.00
                         0.33864327           1.00000000
    P   1 1.00
                       120.16030921           1.00000000
    P   1 1.00
                        34.40962247           1.00000000
    P   1 1.00
                        12.58114861           1.00000000
    P   1 1.00
                         5.06638242           1.00000000
    P   1 1.00
                         2.03469271           1.00000000
    P   1 1.00
                         0.86092967           1.00000000
    P   1 1.00
                         0.36681357           1.00000000
    D   1 1.00
                        19.04306281           1.00000000
    D   1 1.00
                         5.80603811           1.00000000
    D   1 1.00
                         2.18918416           1.00000000
    D   1 1.00
                         0.87794614           1.00000000
    D   1 1.00
                         0.35623647           1.00000000
    F   1 1.00
                         2.49391479           1.00000000
    F   1 1.00
                         0.82491479           1.00000000
    ****
    H   3
    S   1 1.00
                         9.53024933           1.00000000
    S   1 1.00
                         1.91745062           1.00000000
    S   1 1.00
                         0.68424049           1.00000000
    S   1 1.00
                         0.28413256           1.00000000
    P   1 1.00
                         2.91332320           1.00000000
    P   1 1.00
                         1.26212054           1.00000000
    P   1 1.00
                         0.50199776           1.00000000
    D   1 1.00
                         2.31353291           1.00000000
    D   1 1.00
                         0.71290724           1.00000000
    ****
    H   4
    S   1 1.00
                         9.53024933           1.00000000
    S   1 1.00
                         1.91745062           1.00000000
    S   1 1.00
                         0.68424049           1.00000000
    S   1 1.00
                         0.28413256           1.00000000
    P   1 1.00
                         2.91332320           1.00000000
    P   1 1.00
                         1.26212054           1.00000000
    P   1 1.00
                         0.50199776           1.00000000
    D   1 1.00
                         2.31353291           1.00000000
    D   1 1.00
                         0.71290724           1.00000000
    ****
    H   5
    S   1 1.00
                         9.53024933           1.00000000
    S   1 1.00
                         1.91745062           1.00000000
    S   1 1.00
                         0.68424049           1.00000000
    S   1 1.00
                         0.28413256           1.00000000
    P   1 1.00
                         2.91332320           1.00000000
    P   1 1.00
                         1.26212054           1.00000000
    P   1 1.00
                         0.50199776           1.00000000
    D   1 1.00
                         2.31353291           1.00000000
    D   1 1.00
                         0.71290724           1.00000000
    ****

  Cached 100.0% of DFT collocation blocks in 0.132 [GiB].

  Minimum eigenvalue in the overlap matrix is 9.7684238243E-03.
  Using Symmetric Orthogonalization.

  SCF Guess: Orbitals guess was supplied from a previous computation.

  ==> Iterations <==

                           Total Energy        Delta E     RMS |[F,P]|

   @DF-UKS iter   0:  -131.77449355902399   -1.31774e+02   5.99479e-03 
DIIS coefficients:  1.000 
    Occupation by irrep:
              A 
    DOCC [     9 ]
    SOCC [     0 ]

   @DF-UKS iter   1:  -131.70887651476045    6.56170e-02   7.02582e-04 DIIS
DIIS coefficients:  0.556  0.444 
    Occupation by irrep:
              A 
    DOCC [     9 ]
    SOCC [     0 ]

   @DF-UKS iter   2:  -131.70874070917091    1.35806e-04   8.62377e-04 DIIS
DIIS coefficients:  0.152  0.212  0.636 
    Occupation by irrep:
              A 
    DOCC [     9 ]
    SOCC [     0 ]

   @DF-UKS iter   3:  -131.70931415392320   -5.73445e-04   1.89917e-04 DIIS
DIIS coefficients:  0.038  0.075  0.323  0.563 
    Occupation by irrep:
              A 
    DOCC [     9 ]
    SOCC [     0 ]

   @DF-UKS iter   4:  -131.70933871733274   -2.45634e-05   6.42387e-05 DIIS
DIIS coefficients:  -0.006  -0.001  0.030  0.187  0.790 
    Occupation by irrep:
              A 
    DOCC [     9 ]
    SOCC [     0 ]

   @DF-UKS iter   5:  -131.70934175407479   -3.03674e-06   1.24505e-05 DIIS
DIIS coefficients:  -0.003  -0.003  -0.005  0.022  0.192  0.797 
    Occupation by irrep:
              A 
    DOCC [     9 ]
    SOCC [     0 ]

   @DF-UKS iter   6:  -131.70934188802701   -1.33952e-07   1.57960e-06 DIIS
DIIS coefficients:  -0.000  -0.000  -0.002  -0.005  -0.000  0.090  0.917 
    Occupation by irrep:
              A 
    DOCC [     9 ]
    SOCC [     0 ]

   @DF-UKS iter   7:  -131.70934189046139   -2.43438e-09   2.29802e-07 DIIS
DIIS coefficients:  0.000  0.000  -0.000  -0.001  -0.002  0.002  0.136  0.865 
    Occupation by irrep:
              A 
    DOCC [     9 ]
    SOCC [     0 ]

   @DF-UKS iter   8:  -131.70934189052042   -5.90319e-11   2.91848e-08 DIIS
DIIS coefficients:  0.000  0.000  0.000  0.000  -0.000  -0.005  -0.031  0.135  0.900 
    Occupation by irrep:
              A 
    DOCC [     9 ]
    SOCC [     0 ]

   @DF-UKS iter   9:  -131.70934189052130   -8.81073e-13   7.35256e-09 DIIS

  DF guess converged.

  ==> DirectJK: Integral-Direct J/K Matrices <==

    J tasked:                  Yes
    K tasked:                  Yes
    wK tasked:                  No
    Integrals threads:           1
    Schwarz Cutoff:          1E-12

DIIS coefficients:  1.000 
    Occupation by irrep:
              A 
    DOCC [     9 ]
    SOCC [     0 ]

   @UKS iter  10:  -131.70930859424121   -1.31709e+02   9.07280e-06 DIIS
DIIS coefficients:  -0.047  1.047 
    Occupation by irrep:
              A 
    DOCC [     9 ]
    SOCC [     0 ]

   @UKS iter  11:  -131.70930867585361   -8.16124e-08   5.67846e-07 DIIS
DIIS coefficients:  -0.026  0.542  0.484 
    Occupation by irrep:
              A 
    DOCC [     9 ]
    SOCC [     0 ]

   @UKS iter  12:  -131.70930867611264   -2.59035e-10   4.17040e-07 DIIS
DIIS coefficients:  -0.004  0.075  0.263  0.667 
    Occupation by irrep:
              A 
    DOCC [     9 ]
    SOCC [     0 ]

   @UKS iter  13:  -131.70930867622832   -1.15676e-10   1.44450e-07 DIIS
DIIS coefficients:  -0.000  0.005  0.074  0.228  0.694 
    Occupation by irrep:
              A 
    DOCC [     9 ]
    SOCC [     0 ]

   @UKS iter  14:  -131.70930867624332   -1.50067e-11   1.95711e-08 DIIS
DIIS coefficients:  0.000  -0.005  0.009  0.041  0.358  0.597 
    Occupation by irrep:
              A 
    DOCC [     9 ]
    SOCC [     0 ]

   @UKS iter  15:  -131.70930867624361   -2.84217e-13   9.45570e-09 DIIS
  Energy and wave function converged.


  ==> Post-Iterations <==

   @Spin Contamination Metric:  -3.730349363E-14
   @S^2 Expected:                0.000000000E+00
   @S^2 Observed:               -3.730349363E-14
   @S   Expected:                0.000000000E+00
   @S   Observed:                0.000000000E+00

    Orbital Energies [Eh]
    ---------------------

    Alpha Occupied:                                                       

       1A    -19.165456     2A    -14.371161     3A     -1.046223  
       4A     -0.794909     5A     -0.520152     6A     -0.452051  
       7A     -0.411821     8A     -0.326553     9A     -0.230875  

    Alpha Virtual:                                                        

      10A      0.064884    11A      0.086912    12A      0.142715  
      13A      0.155781    14A      0.636776    15A      0.696725  
      16A      0.713449    17A      0.771939    18A      0.826143  
      19A      0.838404    20A      0.933187    21A      0.946594  
      22A      1.021808    23A      1.122443    24A      1.326878  
      25A      1.397377    26A      1.438525    27A      1.580521  
      28A      1.771327    29A      1.912974    30A      2.086513  
      31A      2.120866    32A      2.220287    33A      2.240656  
      34A      2.380878    35A      2.494936    36A      2.632552  
      37A      2.698443    38A      2.739816    39A      2.852641  
      40A      2.919527    41A      3.231693    42A      3.339543  
      43A      3.481981    44A      3.662907    45A      3.923171  

    Beta Occupied:                                                        

       1A    -19.165456     2A    -14.371161     3A     -1.046223  
       4A     -0.794909     5A     -0.520152     6A     -0.452051  
       7A     -0.411821     8A     -0.326553     9A     -0.230875  

    Beta Virtual:                                                         

      10A      0.064884    11A      0.086912    12A      0.142715  
      13A      0.155781    14A      0.636776    15A      0.696725  
      16A      0.713449    17A      0.771939    18A      0.826143  
      19A      0.838404    20A      0.933187    21A      0.946594  
      22A      1.021808    23A      1.122443    24A      1.326878  
      25A      1.397377    26A      1.438525    27A      1.580521  
      28A      1.771327    29A      1.912974    30A      2.086513  
      31A      2.120866    32A      2.220287    33A      2.240656  
      34A      2.380878    35A      2.494936    36A      2.632552  
      37A      2.698443    38A      2.739816    39A      2.852641  
      40A      2.919527    41A      3.231693    42A      3.339543  
      43A      3.481981    44A      3.662907    45A      3.923171  

    Final Occupation by Irrep:
              A 
    DOCC [     9 ]
    SOCC [     0 ]

  @UKS Final Energy:  -131.70930867624361

   => Energetics <=

    Nuclear Repulsion Energy =             39.0865639341709965
    One-Electron Energy =                -257.3190111921155676
[...]
 [-3.4140520896e-02 -2.2881557972e-02 -9.8310894875e-02  2.5198828223e-03
   1.9006935199e-03  3.2301134716e-03  4.9313744545e-05 -1.7927166135e-03
   1.9694577769e-05 -1.5414073266e-03  6.5250234223e-03 -1.2089586650e-02
   1.1871258658e-01  7.2986991163e-02  3.6565684084e-01]]

    Force constants in Cartesian coordinates.

[[ 3.6485680579e-01 -6.9600591503e-02  1.0824646798e-01 -2.1715945092e-01
   8.5911321352e-03  1.5647412654e-02 -2.7099250065e-02 -6.8362050989e-03
   1.0411336479e-02 -4.8408507945e-02  6.6007035655e-02 -6.0501874109e-03
  -7.2189596861e-02  1.8386288118e-03 -1.2825502971e-01]
 [-6.9600591503e-02  4.9444988082e-01  1.3833769368e-01  1.5182702124e-02
  -5.8871662840e-02  1.9072681637e-03  3.0036026005e-02  2.2047174739e-03
  -9.9580024459e-03  3.4146518938e-02 -3.9288329906e-01 -4.4328256360e-02
  -9.7646555644e-03 -4.4899636390e-02 -8.5958703041e-02]
 [ 1.0824646798e-01  1.3833769368e-01  4.6793697251e-01  9.0686988004e-03
   2.8982815846e-03 -5.8934458609e-02 -2.6542082717e-02 -4.4586088094e-03
   5.1619409955e-03 -2.3178963191e-03 -1.0062489574e-01 -4.4841831473e-02
  -8.8455187747e-02 -3.6152470714e-02 -3.6932262343e-01]
 [-2.1715945092e-01  1.5182702124e-02  9.0686988004e-03  3.4511691305e-01
  -1.1499578311e-01  6.9212399534e-02 -6.1020084607e-02  1.0260896013e-01
  -9.3878719393e-02 -3.0640415830e-02 -2.2679817163e-03  5.4803384911e-03
  -3.6296961696e-02 -5.2789742422e-04  1.0117282567e-02]
 [ 8.5911321352e-03 -5.8871662840e-02  2.8982815846e-03 -1.1499578311e-01
   3.1033097839e-01 -2.5652967100e-01  6.2061408927e-02 -2.5910809969e-01
   2.4930684242e-01  4.2405880869e-02  8.0857002517e-03 -3.3067020593e-03
   1.9373611782e-03 -4.3691611137e-04  7.6312490582e-03]
 [ 1.5647412654e-02  1.9072681637e-03 -5.8934458609e-02  6.9212399534e-02
  -2.5652967100e-01  2.8404003059e-01 -5.3230937520e-02  2.4323831467e-01
  -2.3698148361e-01  4.1604593856e-03  8.3599247587e-03 -1.0929337533e-03
  -3.5789334054e-02  3.0241634113e-03  1.2968845388e-02]
 [-2.7099250065e-02  3.0036026005e-02 -2.6542082717e-02 -6.1020084607e-02
   6.2061408927e-02 -5.3230937520e-02  1.0162647631e-01 -9.5062180470e-02
   8.0714955153e-02 -6.4740401707e-03  6.3912075987e-04 -9.9163454223e-04
  -7.0331014724e-03  2.3256247775e-03  4.9699626185e-05]
 [-6.8362050989e-03  2.2047174739e-03 -4.4586088094e-03  1.0260896013e-01
  -2.5910809969e-01  2.4323831467e-01 -9.5062180470e-02  2.5638620511e-01
  -2.3845293491e-01  2.2446884069e-03 -2.7655155684e-04  1.4799737230e-03
  -2.9552629645e-03  7.9372866099e-04 -1.8067446788e-03]
 [ 1.0411336479e-02 -9.9580024459e-03  5.1619409955e-03 -9.3878719393e-02
   2.4930684242e-01 -2.3698148361e-01  8.0714955153e-02 -2.3845293491e-01
   2.3125082426e-01  3.7652393063e-03 -2.3610385236e-03  5.4886966564e-04
  -1.0128115461e-03  1.4651334540e-03  1.9848688475e-05]
 [-4.8408507945e-02  3.4146518938e-02 -2.3178963191e-03 -3.0640415830e-02
   4.2405880869e-02  4.1604593856e-03 -6.4740401707e-03  2.2446884069e-03
   3.7652393063e-03  7.9999604059e-02 -6.4326524821e-02 -4.0543334842e-03
   5.5233598871e-03 -1.4470563394e-02 -1.5534688886e-03]
 [ 6.6007035655e-02 -3.9288329906e-01 -1.0062489574e-01 -2.2679817163e-03
   8.0857002517e-03  8.3599247587e-03  6.3912075987e-04 -2.7655155684e-04
  -2.3610385236e-03 -6.4326524821e-02  3.9593502693e-01  8.8049927569e-02
  -5.1649878147e-05 -1.0860876565e-02  6.5760819408e-03]
 [-6.0501874109e-03 -4.4328256360e-02 -4.4841831473e-02  5.4803384911e-03
  -3.3067020593e-03 -1.0929337533e-03 -9.9163454223e-04  1.4799737230e-03
   5.4886966564e-04 -4.0543334842e-03  8.8049927569e-02  5.7570083616e-02
   5.6158169462e-03 -4.1894942872e-02 -1.2184188055e-02]
 [-7.2189596861e-02 -9.7646555644e-03 -8.8455187747e-02 -3.6296961696e-02
   1.9373611782e-03 -3.5789334054e-02 -7.0331014724e-03 -2.9552629645e-03
  -1.0128115461e-03  5.5233598871e-03 -5.1649878147e-05  5.6158169462e-03
   1.0999630014e-01  1.0834207229e-02  1.1964151640e-01]
 [ 1.8386288118e-03 -4.4899636390e-02 -3.6152470714e-02 -5.2789742422e-04
  -4.3691611137e-04  3.0241634113e-03  2.3256247775e-03  7.9372866099e-04
   1.4651334540e-03 -1.4470563394e-02 -1.0860876565e-02 -4.1894942872e-02
   1.0834207229e-02  5.5403700405e-02  7.3558116721e-02]
 [-1.2825502971e-01 -8.5958703041e-02 -3.6932262343e-01  1.0117282567e-02
   7.6312490582e-03  1.2968845388e-02  4.9699626185e-05 -1.8067446788e-03
   1.9848688475e-05 -1.5534688886e-03  6.5760819408e-03 -1.2184188055e-02
   1.1964151640e-01  7.3558116721e-02  3.6851811740e-01]]

-------------------------------------------------------------


  ==> Harmonic Vibrational Analysis <==

  non-mass-weighted Hessian:       Symmetric? True   Hermitian? True   Lin Dep Dim?  6 (0)
  projection of translations (True) and rotations (True) removed 6 degrees of freedom (6)
  total projector:                 Symmetric? True   Hermitian? True   Lin Dep Dim?  6 (6)
  mass-weighted Hessian:           Symmetric? True   Hermitian? True   Lin Dep Dim?  6 (0)
  pre-proj  low-frequency mode:    0.0000i [cm^-1]
  pre-proj  low-frequency mode:    0.0000i [cm^-1]
  pre-proj  low-frequency mode:    0.0000i [cm^-1]
  pre-proj  low-frequency mode:    0.0000i [cm^-1]
  pre-proj  low-frequency mode:    0.0000  [cm^-1]
  pre-proj  low-frequency mode:    0.0000  [cm^-1]
  pre-proj  all modes:['0.0001i' '0.0000i' '0.0000i' '0.0000i' '0.0000' '0.0000' '400.4651'
 '933.5867' '1163.5113' '1327.1516' '1408.7376' '1673.7896' '3425.7716'
 '3511.3697' '3807.2666']
  projected mass-weighted Hessian: Symmetric? True   Hermitian? True   Lin Dep Dim?  6 (6)
  post-proj low-frequency mode:    0.0001i [cm^-1] (TR)
  post-proj low-frequency mode:    0.0000i [cm^-1] (TR)
  post-proj low-frequency mode:    0.0000i [cm^-1] (TR)
  post-proj low-frequency mode:    0.0000i [cm^-1] (TR)
  post-proj low-frequency mode:    0.0000  [cm^-1] (TR)
  post-proj low-frequency mode:    0.0000  [cm^-1] (TR)
  post-proj  all modes:['0.0001i' '0.0000i' '0.0000i' '0.0000i' '0.0000' '0.0000' '400.4651'
 '933.5867' '1163.5113' '1327.1516' '1408.7376' '1673.7896' '3425.7716'
 '3511.3697' '3807.2666']

  Vibration                       7                   8                   9           
  Freq [cm^-1]                 400.4651            933.5867           1163.5113       
  Irrep                           A                   A                   A           
  Reduced mass [u]              1.0655              8.2953              1.1843        
  Force const [mDyne/A]         0.1007              4.2598              0.9446        
  Turning point v=0 [a0]        0.5312              0.1247              0.2956        
  RMS dev v=0 [a0 u^1/2]        0.3877              0.2539              0.2275        
  Char temp [K]                576.1802           1343.2233           1674.0337       
  ----------------------------------------------------------------------------------
      1   N               -0.00 -0.02 -0.02    0.55  0.05 -0.13    0.00 -0.05  0.05   
      2   O               -0.01 -0.04 -0.04   -0.45 -0.01  0.08   -0.09  0.01  0.01   
      3   H                0.09  0.58  0.58   -0.09  0.05 -0.04    0.42  0.08 -0.14   
      4   H                0.00 -0.09  0.39   -0.15 -0.23  0.40    0.44  0.16 -0.41   
      5   H                0.04  0.38 -0.09   -0.17 -0.37  0.25    0.47  0.34 -0.23   

  Vibration                       10                  11                  12          
  Freq [cm^-1]                1327.1516           1408.7376           1673.7896       
  Irrep                           A                   A                   A           
  Reduced mass [u]              1.1041              1.1726              1.0505        
  Force const [mDyne/A]         1.1458              1.3710              1.7340        
  Turning point v=0 [a0]        0.2866              0.2700              0.2617        
  RMS dev v=0 [a0 u^1/2]        0.2130              0.2067              0.1896        
  Char temp [K]               1909.4756           2026.8598           2408.2106       
  ----------------------------------------------------------------------------------
      1   N               -0.01 -0.05 -0.05   -0.05  0.06 -0.05    0.04 -0.02  0.01   
      2   O                0.00  0.03  0.03    0.00 -0.04  0.04    0.01 -0.02  0.01   
      3   H                0.01  0.05  0.05    0.88  0.07 -0.21    0.16  0.00 -0.03   
      4   H                0.70  0.07 -0.04   -0.12 -0.04  0.26   -0.52  0.01 -0.46   
      5   H               -0.68  0.06  0.17   -0.15 -0.24  0.06   -0.44  0.53  0.06   

  Vibration                       13                  14                  15          
  Freq [cm^-1]                3425.7716           3511.3697           3807.2666       
  Irrep                           A                   A                   A           
  Reduced mass [u]              1.0479              1.0954              1.0684        
  Force const [mDyne/A]         7.2457              7.9572              9.1249        
  Turning point v=0 [a0]        0.1831              0.1769              0.1720        
  RMS dev v=0 [a0 u^1/2]        0.1326              0.1309              0.1257        
  Char temp [K]               4928.9226           5052.0792           5477.8090       
  ----------------------------------------------------------------------------------
      1   N                0.03 -0.04  0.03   -0.01 -0.06 -0.06   -0.00 -0.00  0.00   
      2   O               -0.00  0.00 -0.00    0.00  0.00  0.00    0.02 -0.04  0.04   
      3   H                0.01 -0.01  0.01   -0.00 -0.00 -0.00   -0.28  0.70 -0.66   
      4   H               -0.12  0.68  0.19   -0.12  0.67  0.13   -0.00  0.01  0.00   
      5   H               -0.24 -0.16 -0.64    0.24  0.11  0.66   -0.01 -0.00 -0.01   

  ==> Thermochemistry Components <==

  Entropy, S
    Electronic S            0.000 [cal/(mol K)]        0.000 [J/(mol K)]       0.00000000 [mEh/K] (multiplicity = 1)
    Translational S        36.415 [cal/(mol K)]      152.361 [J/(mol K)]       0.05803135 [mEh/K] (mol. weight = 33.0215 [u], P = 101325.00 [Pa])
    Rotational S           18.523 [cal/(mol K)]       77.500 [J/(mol K)]       0.02951811 [mEh/K] (symmetry no. = 1)
    Vibrational S           1.178 [cal/(mol K)]        4.931 [J/(mol K)]       0.00187794 [mEh/K]
  Total S                  56.117 [cal/(mol K)]      234.792 [J/(mol K)]       0.08942740 [mEh/K]
  Correction S              0.000 [cal/(mol K)]        0.000 [J/(mol K)]       0.00000000 [mEh/K]

  Constant volume heat capacity, Cv
    Electronic Cv           0.000 [cal/(mol K)]        0.000 [J/(mol K)]       0.00000000 [mEh/K]
    Translational Cv        2.981 [cal/(mol K)]       12.472 [J/(mol K)]       0.00475022 [mEh/K]
    Rotational Cv           2.981 [cal/(mol K)]       12.472 [J/(mol K)]       0.00475022 [mEh/K]
    Vibrational Cv          2.433 [cal/(mol K)]       10.180 [J/(mol K)]       0.00387750 [mEh/K]
  Total Cv                  8.395 [cal/(mol K)]       35.124 [J/(mol K)]       0.01337793 [mEh/K]
  Correction Cv             0.000 [cal/(mol K)]        0.000 [J/(mol K)]       0.00000000 [mEh/K]

  Constant pressure heat capacity, Cp
    Electronic Cp           0.000 [cal/(mol K)]        0.000 [J/(mol K)]       0.00000000 [mEh/K]
    Translational Cp        4.968 [cal/(mol K)]       20.786 [J/(mol K)]       0.00791703 [mEh/K]
    Rotational Cp           2.981 [cal/(mol K)]       12.472 [J/(mol K)]       0.00475022 [mEh/K]
    Vibrational Cp          2.433 [cal/(mol K)]       10.180 [J/(mol K)]       0.00387750 [mEh/K]
  Total Cp                 10.382 [cal/(mol K)]       43.438 [J/(mol K)]       0.01654474 [mEh/K]
  Correction Cp             0.000 [cal/(mol K)]        0.000 [J/(mol K)]       0.00000000 [mEh/K]

  ==> Thermochemistry Energy Analysis <==

  Raw electronic energy, E0
  Total E0, Electronic energy at well bottom at 0 [K]                 -131.71577604 [Eh]

  Zero-point energy, ZPE_vib = Sum_i nu_i / 2
    Electronic ZPE          0.000 [kcal/mol]        0.000 [kJ/mol]       0.00000000 [Eh]
    Translational ZPE       0.000 [kcal/mol]        0.000 [kJ/mol]       0.00000000 [Eh]
    Rotational ZPE          0.000 [kcal/mol]        0.000 [kJ/mol]       0.00000000 [Eh]
    Vibrational ZPE        25.234 [kcal/mol]      105.580 [kJ/mol]       0.04021342 [Eh]        8825.825 [cm^-1]
  Correction ZPE           25.234 [kcal/mol]      105.580 [kJ/mol]       0.04021342 [Eh]        8825.825 [cm^-1]
  Total ZPE, Electronic energy at 0 [K]                               -131.67556262 [Eh]

  Thermal Energy, E (includes ZPE)
    Electronic E            0.000 [kcal/mol]        0.000 [kJ/mol]       0.00000000 [Eh]
    Translational E         0.889 [kcal/mol]        3.718 [kJ/mol]       0.00141628 [Eh]
    Rotational E            0.889 [kcal/mol]        3.718 [kJ/mol]       0.00141628 [Eh]
    Vibrational E          25.482 [kcal/mol]      106.618 [kJ/mol]       0.04060880 [Eh]
  Correction E             27.260 [kcal/mol]      114.055 [kJ/mol]       0.04344136 [Eh]
  Total E, Electronic energy at  298.15 [K]                           -131.67233468 [Eh]

  Enthalpy, H_trans = E_trans + k_B * T
    Electronic H            0.000 [kcal/mol]        0.000 [kJ/mol]       0.00000000 [Eh]
    Translational H         1.481 [kcal/mol]        6.197 [kJ/mol]       0.00236046 [Eh]
    Rotational H            0.889 [kcal/mol]        3.718 [kJ/mol]       0.00141628 [Eh]
    Vibrational H          25.482 [kcal/mol]      106.618 [kJ/mol]       0.04060880 [Eh]
  Correction H             27.852 [kcal/mol]      116.534 [kJ/mol]       0.04438554 [Eh]
  Total H, Enthalpy at  298.15 [K]                                    -131.67139050 [Eh]

  Gibbs free energy, G = H - T * S
    Electronic G            0.000 [kcal/mol]        0.000 [kJ/mol]       0.00000000 [Eh]
    Translational G        -9.376 [kcal/mol]      -39.229 [kJ/mol]      -0.01494159 [Eh]
    Rotational G           -4.634 [kcal/mol]      -19.388 [kJ/mol]      -0.00738455 [Eh]
    Vibrational G          25.131 [kcal/mol]      105.148 [kJ/mol]       0.04004890 [Eh]
  Correction G             11.121 [kcal/mol]       46.531 [kJ/mol]       0.01772276 [Eh]
  Total G, Free enthalpy at  298.15 [K]                               -131.69805328 [Eh]
  ## New Matrix (Symmetry 0) ##
  Irrep: 1 Size: 15 x 15

                 1                   2                   3                   4                   5

    1     0.36485680578956    -0.06960059150334     0.10824646798267    -0.21715945091889     0.00859113213520
    2    -0.06960059150334     0.49444988081650     0.13833769368363     0.01518270212434    -0.05887166283971
    3     0.10824646798267     0.13833769368363     0.46793697251181     0.00906869880038     0.00289828158462
    4    -0.21715945091889     0.01518270212434     0.00906869880038     0.34511691305241    -0.11499578311004
    5     0.00859113213520    -0.05887166283971     0.00289828158462    -0.11499578311004     0.31033097838775
    6     0.01564741265433     0.00190726816369    -0.05893445860863     0.06921239953380    -0.25652967100397
    7    -0.02709925006458     0.03003602600505    -0.02654208271727    -0.06102008460692     0.06206140892725
    8    -0.00683620509888     0.00220471747388    -0.00445860880940     0.10260896012619    -0.25910809968835
    9     0.01041133647894    -0.00995800244587     0.00516194099548    -0.09387871939267     0.24930684242049
   10    -0.04840850794505     0.03414651893831    -0.00231789631908    -0.03064041583036     0.04240588086940
   11     0.06600703565525    -0.39288329906056    -0.10062489574477    -0.00226798171626     0.00808570025169
   12    -0.00605018741085    -0.04432825636007    -0.04484183147325     0.00548033849107    -0.00330670205935
   13    -0.07218959686103    -0.00976465556436    -0.08845518774669    -0.03629696169624     0.00193736117819
   14     0.00183862881177    -0.04489963639010    -0.03615247071407    -0.00052789742422    -0.00043691611137
   15    -0.12825502970509    -0.08595870304138    -0.36932262342540     0.01011728256743     0.00763124905822

                 6                   7                   8                   9                  10

    1     0.01564741265433    -0.02709925006458    -0.00683620509888     0.01041133647894    -0.04840850794505
    2     0.00190726816369     0.03003602600505     0.00220471747388    -0.00995800244587     0.03414651893831
    3    -0.05893445860863    -0.02654208271727    -0.00445860880940     0.00516194099548    -0.00231789631908
    4     0.06921239953380    -0.06102008460692     0.10260896012619    -0.09387871939267    -0.03064041583036
    5    -0.25652967100397     0.06206140892725    -0.25910809968835     0.24930684242049     0.04240588086940
    6     0.28404003058649    -0.05323093752018     0.24323831467028    -0.23698148361218     0.00416045938558
    7    -0.05323093752018     0.10162647631454    -0.09506218046971     0.08071495515349    -0.00647404017066
    8     0.24323831467028    -0.09506218046971     0.25638620511032    -0.23845293490507     0.00224468840694
    9    -0.23698148361218     0.08071495515349    -0.23845293490507     0.23125082426259     0.00376523930633
   10     0.00416045938558    -0.00647404017066     0.00224468840694     0.00376523930633     0.07999960405899
   11     0.00835992475870     0.00063912075987    -0.00027655155684    -0.00236103852360    -0.06432652482072
   12    -0.00109293375327    -0.00099163454223     0.00147997372296     0.00054886966564    -0.00405433348418
   13    -0.03578933405352    -0.00703310147239    -0.00295526296454    -0.00101281154609     0.00552335988709
   14     0.00302416341131     0.00232562477754     0.00079372866099     0.00146513345405    -0.01447056339394
   15     0.01296884538758     0.00004969962619    -0.00180674467877     0.00001984868848    -0.00155346888864

                11                  12                  13                  14                  15

    1     0.06600703565525    -0.00605018741085    -0.07218959686103     0.00183862881177    -0.12825502970509
    2    -0.39288329906056    -0.04432825636007    -0.00976465556436    -0.04489963639010    -0.08595870304138
    3    -0.10062489574477    -0.04484183147325    -0.08845518774669    -0.03615247071407    -0.36932262342540
    4    -0.00226798171626     0.00548033849107    -0.03629696169624    -0.00052789742422     0.01011728256743
    5     0.00808570025169    -0.00330670205935     0.00193736117819    -0.00043691611137     0.00763124905822
    6     0.00835992475870    -0.00109293375327    -0.03578933405352     0.00302416341131     0.01296884538758
    7     0.00063912075987    -0.00099163454223    -0.00703310147239     0.00232562477754     0.00004969962619
    8    -0.00027655155684     0.00147997372296    -0.00295526296454     0.00079372866099    -0.00180674467877
    9    -0.00236103852360     0.00054886966564    -0.00101281154609     0.00146513345405     0.00001984868848
   10    -0.06432652482072    -0.00405433348418     0.00552335988709    -0.01447056339394    -0.00155346888864
   11     0.39593502693048     0.08804992756883    -0.00005164987815    -0.01086087656476     0.00657608194084
   12     0.08804992756883     0.05757008361556     0.00561581694619    -0.04189494287238    -0.01218418805468
   13    -0.00005164987815     0.00561581694619     0.10999630014257     0.01083420722885     0.11964151640012
   14    -0.01086087656476    -0.04189494287238     0.01083420722885     0.05540370040524     0.07355811672109
   15     0.00657608194084    -0.01218418805468     0.11964151640012     0.07355811672109     0.36851811740403




    Psi4 stopped on: Sunday, 20 September 2020 10:32AM
    Psi4 wall time for execution: 0:01:58.01

*** Psi4 exiting successfully. Buy a developer a beer!
Optimizer: Optimization complete!
 19 displacements needed.
 1 2 3 4 5 6 7 8 9 10 11 12 13 14 15 16 17 18 19
Warning: used thermodynamics relations inappropriate for low-frequency modes: ['400.4651']
