
    -----------------------------------------------------------------------
          Psi4: An Open-Source Ab Initio Electronic Structure Package
                               Psi4 1.3.2 release

                         Git: Rev {HEAD} ecbda83 


    R. M. Parrish, L. A. Burns, D. G. A. Smith, A. C. Simmonett,
    A. E. DePrince III, E. G. Hohenstein, U. Bozkaya, A. Yu. Sokolov,
    R. Di Remigio, R. M. Richard, J. F. Gonthier, A. M. James,
    H. R. McAlexander, A. Kumar, M. Saitow, X. Wang, B. P. Pritchard,
    P. Verma, H. F. Schaefer III, K. Patkowski, R. A. King, E. F. Valeev,
    F. A. Evangelista, J. M. Turney, T. D. Crawford, and C. D. Sherrill,
    J. Chem. Theory Comput. 13(7) pp 3185--3197 (2017).
    (doi: 10.1021/acs.jctc.7b00174)


                         Additional Contributions by
    P. Kraus, H. Kruse, M. H. Lechner, M. C. Schieber, R. A. Shaw,
    A. Alenaizan, R. Galvelis, Z. L. Glick, S. Lehtola, and J. P. Misiewicz

    -----------------------------------------------------------------------


    Psi4 started on: Sunday, 20 September 2020 12:15PM

    Process ID: 26721
    Host:       FACC02D75Y4MD6T.tld
    PSIDATADIR: /Users/blais.ch/anaconda3/envs/rmg_env/share/psi4
    Memory:     500.0 MiB
    Threads:    1
    
  ==> Input File <==

--------------------------------------------------------------------------
memory 1024 mb

molecule mol {
0 2
N 0.00000000 0.00000000 0.00000000
O -1.07573100 0.00000000 0.67649500
O 1.07733200 0.00000000 0.67680200

}

set {
  scf_type DIRECT
  basis 6-31G(d_p)
  reference uks
  geom_maxiter 50
  print 3
}

optimize('b3lyp')
scf_e, wfn=frequencies('b3lyp', return_wfn=True, dertype=1)
wfn.hessian().print_out()
--------------------------------------------------------------------------

  Memory set to 976.562 MiB by Python driver.
gradient() will perform analytic gradient computation.

*** tstart() called on FACC02D75Y4MD6T.tld
*** at Sun Sep 20 12:15:34 2020

   => Loading Basis Set <=

    Name: 6-31G(D_P)
    Role: ORBITAL
    Keyword: BASIS
    atoms 1   entry N          line   132 file /Users/blais.ch/anaconda3/envs/rmg_env/share/psi4/basis/6-31g_d_p_.gbs 
    atoms 2-3 entry O          line   149 file /Users/blais.ch/anaconda3/envs/rmg_env/share/psi4/basis/6-31g_d_p_.gbs 


         ---------------------------------------------------------
                                   SCF
               by Justin Turney, Rob Parrish, Andy Simmonett
                          and Daniel G. A. Smith
                              UKS Reference
                        1 Threads,    976 MiB Core
         ---------------------------------------------------------

  ==> Geometry <==

    Molecular point group: cs
    Full point group: Cs

    Geometry (in Angstrom), charge = 0, multiplicity = 2:

       Center              X                  Y                   Z               Mass       
    ------------   -----------------  -----------------  -----------------  -----------------
         N            0.000556778470    -0.470634998954     0.000000000000    14.003074004430
         O            1.076287778470     0.205860001046     0.000000000000    15.994914619570
         O           -1.076775221530     0.206167001046     0.000000000000    15.994914619570

           N
              BASIS           6-31G(D_P)           be17c05ec1461ad3097843c20da1040adf86ba79
           O
              BASIS           6-31G(D_P)           ec2d227169b1af6c6a69bc8715bab79dbd7bb644
           O
              BASIS           6-31G(D_P)           ec2d227169b1af6c6a69bc8715bab79dbd7bb644

  Running in cs symmetry.

  Rotational constants: A =      3.78030  B =      0.45471  C =      0.40589 [cm^-1]
  Rotational constants: A = 113330.48076  B =  13631.75212  C =  12168.13052 [MHz]
  Nuclear repulsion =   62.341520336362009

  Charge       = 0
  Multiplicity = 2
  Electrons    = 23
  Nalpha       = 12
  Nbeta        = 11

  ==> Algorithm <==

  SCF Algorithm Type is DIRECT.
  DIIS enabled.
  MOM disabled.
  Fractional occupation disabled.
  Guess Type is SAD.
  Energy threshold   = 1.00e-08
  Density threshold  = 1.00e-08
  Integral threshold = 0.00e+00

  ==> Primary Basis <==

  -AO BASIS SET INFORMATION:
    Name                   = 6-31G(D_P)
    Blend                  = 6-31G(D_P)
    Total number of shells = 18
    Number of primitives   = 45
    Number of AO           = 45
    Number of SO           = 45
    Maximum AM             = 2
    Spherical Harmonics    = FALSE

  -Contraction Scheme:
    Atom   Type   All Primitives // Shells:
   ------ ------ --------------------------
       1     N     10s 4p 1d // 3s 2p 1d 
       2     O     10s 4p 1d // 3s 2p 1d 
       3     O     10s 4p 1d // 3s 2p 1d 

  ==> AO Basis Functions <==

    [ 6-31G(D_P) ]
    cartesian
    ****
    N   1
    S   6 1.00
                      4173.51100000           0.00183480
                       627.45790000           0.01399500
                       142.90210000           0.06858700
                        40.23433000           0.23224100
                        12.82021000           0.46907000
                         4.39043700           0.36045500
    S   3 1.00
                        11.62635800          -0.11496100
                         2.71628000          -0.16911800
                         0.77221800           1.14585200
    P   3 1.00
                        11.62635800           0.06758000
                         2.71628000           0.32390700
                         0.77221800           0.74089500
    S   1 1.00
                         0.21203130           1.00000000
    P   1 1.00
                         0.21203130           1.00000000
    D   1 1.00
                         0.80000000           1.00000000
    ****
    O   2
    S   6 1.00
                      5484.67170000           0.00183110
                       825.23495000           0.01395010
                       188.04696000           0.06844510
                        52.96450000           0.23271430
                        16.89757000           0.47019300
                         5.79963530           0.35852090
    S   3 1.00
                        15.53961600          -0.11077750
                         3.59993360          -0.14802630
                         1.01376180           1.13076700
    P   3 1.00
                        15.53961600           0.07087430
                         3.59993360           0.33975280
                         1.01376180           0.72715860
    S   1 1.00
                         0.27000580           1.00000000
    P   1 1.00
                         0.27000580           1.00000000
    D   1 1.00
                         0.80000000           1.00000000
    ****
    O   3
    S   6 1.00
                      5484.67170000           0.00183110
                       825.23495000           0.01395010
                       188.04696000           0.06844510
                        52.96450000           0.23271430
                        16.89757000           0.47019300
                         5.79963530           0.35852090
    S   3 1.00
                        15.53961600          -0.11077750
                         3.59993360          -0.14802630
                         1.01376180           1.13076700
    P   3 1.00
                        15.53961600           0.07087430
                         3.59993360           0.33975280
                         1.01376180           0.72715860
    S   1 1.00
                         0.27000580           1.00000000
    P   1 1.00
                         0.27000580           1.00000000
    D   1 1.00
                         0.80000000           1.00000000
    ****

  ==> DFT Potential <==

   => Composite Functional: B3LYP <= 

    B3LYP Hyb-GGA Exchange-Correlation Functional

    P. J. Stephens, F. J. Devlin, C. F. Chabalowski, and M. J. Frisch, J. Phys. Chem. 98, 11623 (1994)

    Deriv               =              1
    GGA                 =           TRUE
    Meta                =          FALSE

    Exchange Hybrid     =           TRUE
    MP2 Hybrid          =          FALSE

   => Exchange Functionals <=

    0.0800   Slater exchange
    0.7200         Becke 88

   => Exact (HF) Exchange <=

    0.2000               HF 

   => Correlation Functionals <=

    0.1900   Vosko, Wilk & Nusair (VWN5_RPA)
    0.8100   Lee, Yang & Parr

   => XC_HYB_GGA_XC_B3LYP Functional <=

    B3LYP
    P. J. Stephens, F. J. Devlin, C. F. Chabalowski, and M. J. Frisch, J. Phys. Chem. 98, 11623 (1994)
    GGA   =           TRUE
    Meta  =          FALSE
    LRC   =          FALSE
    Alpha =   1.000000E+00
    Omega =   0.000000E+00

    > Parameters <


   => Molecular Quadrature <=

    Radial Scheme          =       TREUTLER
    Pruning Scheme         =           FLAT
    Nuclear Scheme         =       TREUTLER

    BS radius alpha        =              1
    Pruning alpha          =              1
    Radial Points          =             75
    Spherical Points       =            302
    Total Points           =          63076
    Total Blocks           =            540
    Max Points             =            256
    Max Functions          =             45

   => Loading Basis Set <=

    Name: (6-31G(D_P) AUX)
    Role: JKFIT
    Keyword: DF_BASIS_SCF
    atoms 1   entry N          line   171 file /Users/blais.ch/anaconda3/envs/rmg_env/share/psi4/basis/cc-pvdz-jkfit.gbs 
    atoms 2-3 entry O          line   221 file /Users/blais.ch/anaconda3/envs/rmg_env/share/psi4/basis/cc-pvdz-jkfit.gbs 

  Starting with a DF guess...

  ==> Pre-Iterations <==

   -------------------------------------------------------
    Irrep   Nso     Nmo     Nalpha   Nbeta   Ndocc  Nsocc
   -------------------------------------------------------
     A'        33      33       0       0       0       0
     A"        12      12       0       0       0       0
   -------------------------------------------------------
    Total      45      45      12      11      11       1
   -------------------------------------------------------

  ==> Integral Setup <==

  DFHelper Memory: AOs need 0.005 GiB; user supplied 0.638 GiB. Using in-core AOs.

  ==> MemDFJK: Density-Fitted J/K Matrices <==

    J tasked:                   Yes
    K tasked:                   Yes
    wK tasked:                   No
    OpenMP threads:               1
    Memory [MiB]:               653
    Algorithm:                 Core
    Schwarz Cutoff:           1E-12
    Mask sparsity (%):       0.0988
    Fitting Condition:        1E-10

   => Auxiliary Basis Set <=

  -AO BASIS SET INFORMATION:
    Name                   = (6-31G(D_P) AUX)
    Blend                  = CC-PVDZ-JKFIT
    Total number of shells = 72
    Number of primitives   = 72
    Number of AO           = 243
    Number of SO           = 243
    Maximum AM             = 3
    Spherical Harmonics    = FALSE

  -Contraction Scheme:
    Atom   Type   All Primitives // Shells:
   ------ ------ --------------------------
       1     N     10s 7p 5d 2f // 10s 7p 5d 2f 
       2     O     10s 7p 5d 2f // 10s 7p 5d 2f 
       3     O     10s 7p 5d 2f // 10s 7p 5d 2f 

  ==> AO Basis Functions <==

    [ (6-31G(D_P) AUX) ]
    cartesian
    ****
    N   1
    S   1 1.00
                      1102.86224530           1.00000000
    S   1 1.00
                       370.98041153           1.00000000
    S   1 1.00
                       136.73555938           1.00000000
    S   1 1.00
                        50.75587192           1.00000000
    S   1 1.00
                        20.53565610           1.00000000
    S   1 1.00
                         7.83187372           1.00000000
    S   1 1.00
                         3.47840639           1.00000000
    S   1 1.00
                         1.45528566           1.00000000
    S   1 1.00
                         0.63068989           1.00000000
    S   1 1.00
                         0.27276596           1.00000000
    P   1 1.00
                        93.54095407           1.00000000
    P   1 1.00
                        29.52401953           1.00000000
    P   1 1.00
                        10.91750299           1.00000000
    P   1 1.00
                         4.34492890           1.00000000
    P   1 1.00
                         1.82169126           1.00000000
    P   1 1.00
                         0.75792424           1.00000000
    P   1 1.00
                         0.28241469           1.00000000
    D   1 1.00
                        16.41937893           1.00000000
    D   1 1.00
                         5.01040494           1.00000000
    D   1 1.00
                         1.97939719           1.00000000
    D   1 1.00
                         0.78495772           1.00000000
    D   1 1.00
                         0.28954066           1.00000000
    F   1 1.00
                         1.79354240           1.00000000
    F   1 1.00
                         0.60854240           1.00000000
    ****
    O   2
    S   1 1.00
                      1517.86675060           1.00000000
    S   1 1.00
                       489.67952008           1.00000000
    S   1 1.00
                       176.72118665           1.00000000
    S   1 1.00
                        63.79223314           1.00000000
    S   1 1.00
                        25.36649913           1.00000000
    S   1 1.00
                         9.91354912           1.00000000
    S   1 1.00
                         4.46453066           1.00000000
    S   1 1.00
                         1.80177437           1.00000000
    S   1 1.00
                         0.80789711           1.00000000
    S   1 1.00
                         0.33864327           1.00000000
    P   1 1.00
                       120.16030921           1.00000000
    P   1 1.00
                        34.40962247           1.00000000
    P   1 1.00
                        12.58114861           1.00000000
    P   1 1.00
                         5.06638242           1.00000000
    P   1 1.00
                         2.03469271           1.00000000
    P   1 1.00
                         0.86092967           1.00000000
    P   1 1.00
                         0.36681357           1.00000000
    D   1 1.00
                        19.04306281           1.00000000
    D   1 1.00
                         5.80603811           1.00000000
    D   1 1.00
                         2.18918416           1.00000000
    D   1 1.00
                         0.87794614           1.00000000
    D   1 1.00
                         0.35623647           1.00000000
    F   1 1.00
                         2.49391479           1.00000000
    F   1 1.00
                         0.82491479           1.00000000
    ****
    O   3
    S   1 1.00
                      1517.86675060           1.00000000
    S   1 1.00
                       489.67952008           1.00000000
    S   1 1.00
                       176.72118665           1.00000000
    S   1 1.00
                        63.79223314           1.00000000
    S   1 1.00
                        25.36649913           1.00000000
    S   1 1.00
                         9.91354912           1.00000000
    S   1 1.00
                         4.46453066           1.00000000
    S   1 1.00
                         1.80177437           1.00000000
    S   1 1.00
                         0.80789711           1.00000000
    S   1 1.00
                         0.33864327           1.00000000
    P   1 1.00
                       120.16030921           1.00000000
    P   1 1.00
                        34.40962247           1.00000000
    P   1 1.00
                        12.58114861           1.00000000
    P   1 1.00
                         5.06638242           1.00000000
    P   1 1.00
                         2.03469271           1.00000000
    P   1 1.00
                         0.86092967           1.00000000
    P   1 1.00
                         0.36681357           1.00000000
    D   1 1.00
                        19.04306281           1.00000000
    D   1 1.00
                         5.80603811           1.00000000
    D   1 1.00
                         2.18918416           1.00000000
    D   1 1.00
                         0.87794614           1.00000000
    D   1 1.00
                         0.35623647           1.00000000
    F   1 1.00
                         2.49391479           1.00000000
    F   1 1.00
                         0.82491479           1.00000000
    ****

  Cached 100.0% of DFT collocation blocks in 0.077 [GiB].

  Minimum eigenvalue in the overlap matrix is 5.6165911414E-03.
  Using Symmetric Orthogonalization.

  SCF Guess: Superposition of Atomic Densities via on-the-fly atomic UHF.

DIIS coefficients:  1.000 
DIIS coefficients:  0.279  0.721 
DIIS coefficients:  -0.018  0.036  0.982 
DIIS coefficients:  -0.000  -0.002  -0.067  1.070 
DIIS coefficients:  -0.000  0.000  0.009  -0.178  1.168 
DIIS coefficients:  0.000  -0.000  -0.000  0.006  -0.045  1.039 
DIIS coefficients:  1.000 
DIIS coefficients:  0.329  0.671 
DIIS coefficients:  -0.027  -0.001  1.028 
DIIS coefficients:  -0.002  -0.000  -0.045  1.047 
DIIS coefficients:  0.000  0.000  0.005  -0.173  1.168 
DIIS coefficients:  0.000  -0.000  -0.001  0.017  -0.113  1.097 
  ==> Iterations <==

                           Total Energy        Delta E     RMS |[F,P]|

   @DF-UKS iter SAD:  -204.55257949984770   -2.04553e+02   0.00000e+00 
DIIS coefficients:  1.000 
    Occupation by irrep:
             Ap   App 
    DOCC [     9,    2 ]
    SOCC [     1,    0 ]

   @DF-UKS iter   1:  -204.94238235399314   -3.89803e-01   1.53080e-02 DIIS
DIIS coefficients:  0.690  0.310 
    Occupation by irrep:
             Ap   App 
    DOCC [     9,    2 ]
    SOCC [     1,    0 ]

   @DF-UKS iter   2:  -204.56107667401417    3.81306e-01   3.28970e-02 DIIS
DIIS coefficients:  0.200  0.109  0.691 
    Occupation by irrep:
             Ap   App 
    DOCC [     9,    2 ]
    SOCC [     1,    0 ]

   @DF-UKS iter   3:  -205.04271771606588   -4.81641e-01   2.35864e-03 DIIS
DIIS coefficients:  0.079  0.040  0.390  0.491 
    Occupation by irrep:
             Ap   App 
    DOCC [     9,    2 ]
    SOCC [     1,    0 ]

   @DF-UKS iter   4:  -205.04483556895255   -2.11785e-03   1.32675e-03 DIIS
DIIS coefficients:  0.001  -0.005  0.135  0.550  0.319 
    Occupation by irrep:
             Ap   App 
    DOCC [     9,    2 ]
    SOCC [     1,    0 ]

   @DF-UKS iter   5:  -205.04395970363080    8.75865e-04   1.88365e-03 DIIS
DIIS coefficients:  -0.006  -0.005  -0.003  0.067  0.062  0.886 
    Occupation by irrep:
             Ap   App 
    DOCC [     9,    2 ]
    SOCC [     1,    0 ]

   @DF-UKS iter   6:  -205.04573438927136   -1.77469e-03   8.96520e-05 DIIS
DIIS coefficients:  0.000  0.000  -0.010  -0.050  -0.030  -0.035  1.125 
    Occupation by irrep:
             Ap   App 
    DOCC [     9,    2 ]
    SOCC [     1,    0 ]

   @DF-UKS iter   7:  -205.04574082355890   -6.43429e-06   1.99000e-05 DIIS
DIIS coefficients:  0.000  0.000  0.001  -0.002  -0.002  -0.047  -0.036  1.086 
    Occupation by irrep:
             Ap   App 
    DOCC [     9,    2 ]
    SOCC [     1,    0 ]

   @DF-UKS iter   8:  -205.04574165087740   -8.27319e-07   6.41604e-06 DIIS
DIIS coefficients:  -0.000  -0.000  0.002  0.008  0.006  0.005  -0.181  -0.003  1.164 
    Occupation by irrep:
             Ap   App 
    DOCC [     9,    2 ]
    SOCC [     1,    0 ]

   @DF-UKS iter   9:  -205.04574173602307   -8.51457e-08   2.47777e-06 DIIS
DIIS coefficients:  -0.000  -0.000  -0.000  -0.001  -0.000  0.003  0.036  -0.094  -0.225  1.282 
    Occupation by irrep:
             Ap   App 
    DOCC [     9,    2 ]
    SOCC [     1,    0 ]

   @DF-UKS iter  10:  -205.04574175309568   -1.70726e-08   1.09755e-06 DIIS
DIIS coefficients:  -0.000  1.270  -0.000  -0.000  0.000  -0.001  0.001  0.019  -0.021  -0.268 
    Occupation by irrep:
             Ap   App 
    DOCC [     9,    2 ]
    SOCC [     1,    0 ]

   @DF-UKS iter  11:  -205.04574175566947   -2.57378e-09   7.01777e-07 DIIS
DIIS coefficients:  2.412  -1.478  0.000  0.000  0.000  -0.000  -0.006  -0.001  0.060  0.012 
    Occupation by irrep:
             Ap   App 
    DOCC [     9,    2 ]
    SOCC [     1,    0 ]

   @DF-UKS iter  12:  -205.04574175661077   -9.41299e-10   5.86498e-07 DIIS
DIIS coefficients:  -1.260  -0.357  2.353  -0.000  -0.000  0.000  0.004  -0.025  -0.023  0.307 
    Occupation by irrep:
             Ap   App 
    DOCC [     9,    2 ]
    SOCC [     1,    0 ]

   @DF-UKS iter  13:  -205.04574175771856   -1.10779e-09   3.42449e-07 DIIS
DIIS coefficients:  0.321  0.136  -0.826  -0.000  1.434  -0.000  -0.001  0.006  0.003  -0.074 
    Occupation by irrep:
             Ap   App 
    DOCC [     9,    2 ]
    SOCC [     1,    0 ]

   @DF-UKS iter  14:  -205.04574175832030   -6.01744e-10   5.03004e-08 DIIS
DIIS coefficients:  0.069  0.058  -0.253  0.633  0.515  -0.000  -0.000  0.002  0.001  -0.024 
    Occupation by irrep:
             Ap   App 
    DOCC [     9,    2 ]
    SOCC [     1,    0 ]

   @DF-UKS iter  15:  -205.04574175833133   -1.10276e-11   1.08210e-08 DIIS
DIIS coefficients:  -0.008  -0.004  0.020  0.194  -0.064  0.861  -0.000  -0.000  -0.000  0.001 
    Occupation by irrep:
             Ap   App 
    DOCC [     9,    2 ]
    SOCC [     1,    0 ]

   @DF-UKS iter  16:  -205.04574175833156   -2.27374e-13   3.18114e-09 DIIS

  DF guess converged.

  ==> DirectJK: Integral-Direct J/K Matrices <==

    J tasked:                  Yes
    K tasked:                  Yes
    wK tasked:                  No
    Integrals threads:           1
    Schwarz Cutoff:          1E-12

DIIS coefficients:  1.000 
    Occupation by irrep:
             Ap   App 
    DOCC [     9,    2 ]
    SOCC [     1,    0 ]

   @UKS iter  17:  -205.04580978359550   -2.05046e+02   1.43702e-05 DIIS
DIIS coefficients:  0.021  0.979 
    Occupation by irrep:
             Ap   App 
    DOCC [     9,    2 ]
    SOCC [     1,    0 ]

   @UKS iter  18:  -205.04580989942122   -1.15826e-07   2.64512e-06 DIIS
DIIS coefficients:  -0.016  0.641  0.375 
    Occupation by irrep:
             Ap   App 
    DOCC [     9,    2 ]
    SOCC [     1,    0 ]

   @UKS iter  19:  -205.04580989504208    4.37913e-09   4.24710e-06 DIIS
DIIS coefficients:  -0.012  0.211  0.231  0.570 
    Occupation by irrep:
             Ap   App 
    DOCC [     9,    2 ]
    SOCC [     1,    0 ]

   @UKS iter  20:  -205.04580990273942   -7.69734e-09   1.18558e-06 DIIS
DIIS coefficients:  -0.001  -0.005  0.010  0.123  0.873 
    Occupation by irrep:
             Ap   App 
    DOCC [     9,    2 ]
    SOCC [     1,    0 ]

   @UKS iter  21:  -205.04580990341452   -6.75101e-10   1.63477e-07 DIIS
DIIS coefficients:  0.001  -0.028  -0.025  0.011  0.435  0.606 
    Occupation by irrep:
             Ap   App 
    DOCC [     9,    2 ]
    SOCC [     1,    0 ]

   @UKS iter  22:  -205.04580990343715   -2.26237e-11   1.01786e-07 DIIS
DIIS coefficients:  0.002  -0.034  -0.039  -0.059  0.022  0.749  0.358 
    Occupation by irrep:
             Ap   App 
    DOCC [     9,    2 ]
    SOCC [     1,    0 ]

   @UKS iter  23:  -205.04580990343115    5.99698e-12   1.65848e-07 DIIS
DIIS coefficients:  -0.000  0.006  0.007  0.005  -0.050  -0.138  0.021  1.148 
    Occupation by irrep:
             Ap   App 
    DOCC [     9,    2 ]
    SOCC [     1,    0 ]

   @UKS iter  24:  -205.04580990344630   -1.51488e-11   1.50402e-08 DIIS
DIIS coefficients:  -0.000  0.004  0.004  0.006  -0.004  -0.095  -0.007  0.008  1.086 
    Occupation by irrep:
             Ap   App 
    DOCC [     9,    2 ]
    SOCC [     1,    0 ]

   @UKS iter  25:  -205.04580990344664   -3.41061e-13   6.94457e-09 DIIS
  Energy and wave function converged.


  ==> Post-Iterations <==

   @Spin Contamination Metric:   5.433031818E-03
   @S^2 Expected:                7.500000000E-01
   @S^2 Observed:                7.554330318E-01
   @S   Expected:                5.000000000E-01
   @S   Observed:                5.000000000E-01

    Orbital Energies [Eh]
    ---------------------

    Alpha Occupied:                                                       

       1Ap   -19.268153     2Ap   -19.268033     3Ap   -14.591198  
       4Ap    -1.243345     5Ap    -1.079742     6Ap    -0.698983  
       7Ap    -0.560831     8Ap    -0.550014     1App   -0.536138  
       2App   -0.366372     9Ap    -0.360527    10Ap    -0.343495  

    Alpha Virtual:                                                        

       3App   -0.125148    11Ap     0.195726    12Ap     0.223272  
      13Ap     0.570669    14Ap     0.576424    15Ap     0.605148  
       4App    0.620175    16Ap     0.809655    17Ap     0.809972  
      18Ap     0.848448     5App    0.890773     6App    0.902527  
      19Ap     0.979164    20Ap     1.171765    21Ap     1.307186  
       7App    1.354564    22Ap     1.396869     8App    1.404964  
      23Ap     1.727532     9App    1.758755    10App    1.767995  
      24Ap     1.789535    25Ap     1.983068    26Ap     2.141019  
      27Ap     2.359880    11App    2.362033    12App    2.516896  
      28Ap     2.586826    29Ap     2.730990    30Ap     2.821075  
      31Ap     3.268288    32Ap     3.536968    33Ap     3.615251  

    Beta Occupied:                                                        

       1Ap   -19.258475     2Ap   -19.258257     3Ap   -14.583339  
       4Ap    -1.225012     5Ap    -1.054593     6Ap    -0.664231  
       7Ap    -0.533175     1App   -0.527015     8Ap    -0.511485  
       2App   -0.356741     9Ap    -0.316533  

    Beta Virtual:                                                         

      10Ap    -0.205237     3App   -0.111153    11Ap     0.210136  
      12Ap     0.251573    13Ap     0.579384    14Ap     0.597576  
      15Ap     0.615059     4App    0.625787    16Ap     0.820900  
      17Ap     0.823665    18Ap     0.872048     5App    0.895912  
       6App    0.909482    19Ap     1.003161    20Ap     1.186557  
      21Ap     1.316272     7App    1.360360    22Ap     1.419970  
       8App    1.420807    23Ap     1.751178     9App    1.772347  
      10App    1.791779    24Ap     1.805086    25Ap     1.998468  
      26Ap     2.155726    11App    2.373477    27Ap     2.383307  
      12App    2.526195    28Ap     2.608850    29Ap     2.741575  
      30Ap     2.838887    31Ap     3.285210    32Ap     3.551259  
      33Ap     3.632354  

    Final Occupation by Irrep:
             Ap   App 
    DOCC [     9,    2 ]
    SOCC [     1,    0 ]

  @UKS Final Energy:  -205.04580990344664

   => Energetics <=

    Nuclear Repulsion Energy =             62.3415203363620094
    One-Electron Energy =                -403.7767936308465551
    Two-Electron Energy =                 155.6556730690108736
    DFT Exchange-Correlation Energy =     -19.2662096779729701
    Empirical Dispersion Energy =           0.0000000000000000
    VV10 Nonlocal Energy =                  0.0000000000000000
    Total Energy =                       -205.0458099034466386

  UHF NO Occupations:
  HONO-2 :    8 Ap 1.9994274
  HONO-1 :    9 Ap 1.9980472
  HONO-0 :   10 Ap 1.0000000
  LUNO+0 :   11 Ap 0.0019528
  LUNO+1 :   12 Ap 0.0005726
  LUNO+2 :   13 Ap 0.0000787
  LUNO+3 :   14 Ap 0.0000574


Computation Completed


Properties will be evaluated at   0.000000,   0.000000,   0.000000 [a0]

Properties computed using the SCF density matrix

  Nuclear Dipole Moment: [e a0]
     X:    -0.0000      Y:     0.0033      Z:     0.0000

  Electronic Dipole Moment: [e a0]
     X:     0.0014      Y:    -0.2187      Z:     0.0000

  Dipole Moment: [e a0]
     X:     0.0014      Y:    -0.2154      Z:     0.0000     Total:     0.2154

  Dipole Moment: [D]
     X:     0.0035      Y:    -0.5475      Z:     0.0000     Total:     0.5475


*** tstop() called on FACC02D75Y4MD6T.tld at Sun Sep 20 12:15:37 2020
Module time:
	user time   =       3.47 seconds =       0.06 minutes
	system time =       0.10 seconds =       0.00 minutes
	total time  =          3 seconds =       0.05 minutes
Total time:
	user time   =       3.47 seconds =       0.06 minutes
	system time =       0.10 seconds =       0.00 minutes
	total time  =          3 seconds =       0.05 minutes

*** tstart() called on FACC02D75Y4MD6T.tld
*** at Sun Sep 20 12:15:37 2020


         ------------------------------------------------------------
                                   SCF GRAD                          
                          Rob Parrish, Justin Turney,                
                       Andy Simmonett, and Alex Sokolov              
         ------------------------------------------------------------

  ==> Geometry <==

    Molecular point group: cs
    Full point group: Cs

    Geometry (in Angstrom), charge = 0, multiplicity = 2:

       Center              X                  Y                   Z               Mass       
    ------------   -----------------  -----------------  -----------------  -----------------
         N            0.000556778470    -0.470634998954     0.000000000000    14.003074004430
         O            1.076287778470     0.205860001046     0.000000000000    15.994914619570
         O           -1.076775221530     0.206167001046     0.000000000000    15.994914619570

           N
              BASIS           6-31G(D_P)           be17c05ec1461ad3097843c20da1040adf86ba79
              DF_BASIS_SCF    (6-31G(D_P) AUX)     8eb73939244d0ff71e080d82475ea73ba87737d3
           O
              BASIS           6-31G(D_P)           ec2d227169b1af6c6a69bc8715bab79dbd7bb644
              DF_BASIS_SCF    (6-31G(D_P) AUX)     b57462463db1b385e39e4428a46364991bcd7673
           O
              BASIS           6-31G(D_P)           ec2d227169b1af6c6a69bc8715bab79dbd7bb644
              DF_BASIS_SCF    (6-31G(D_P) AUX)     b57462463db1b385e39e4428a46364991bcd7673

  Nuclear repulsion =   62.341520336362009

  ==> Basis Set <==

  -AO BASIS SET INFORMATION:
    Name                   = 6-31G(D_P)
    Blend                  = 6-31G(D_P)
    Total number of shells = 18
    Number of primitives   = 45
    Number of AO           = 45
    Number of SO           = 45
    Maximum AM             = 2
    Spherical Harmonics    = FALSE

  -Contraction Scheme:
    Atom   Type   All Primitives // Shells:
   ------ ------ --------------------------
       1     N     10s 4p 1d // 3s 2p 1d 
       2     O     10s 4p 1d // 3s 2p 1d 
       3     O     10s 4p 1d // 3s 2p 1d 

  ==> AO Basis Functions <==

    [ 6-31G(D_P) ]
    cartesian
    ****
    N   1
    S   6 1.00
                      4173.51100000           0.00183480
                       627.45790000           0.01399500
                       142.90210000           0.06858700
                        40.23433000           0.23224100
                        12.82021000           0.46907000
                         4.39043700           0.36045500
    S   3 1.00
                        11.62635800          -0.11496100
                         2.71628000          -0.16911800
                         0.77221800           1.14585200
    P   3 1.00
                        11.62635800           0.06758000
                         2.71628000           0.32390700
                         0.77221800           0.74089500
    S   1 1.00
                         0.21203130           1.00000000
    P   1 1.00
                         0.21203130           1.00000000
    D   1 1.00
                         0.80000000           1.00000000
    ****
    O   2
    S   6 1.00
                      5484.67170000           0.00183110
                       825.23495000           0.01395010
                       188.04696000           0.06844510
                        52.96450000           0.23271430
                        16.89757000           0.47019300
                         5.79963530           0.35852090
    S   3 1.00
                        15.53961600          -0.11077750
                         3.59993360          -0.14802630
                         1.01376180           1.13076700
    P   3 1.00
                        15.53961600           0.07087430
                         3.59993360           0.33975280
                         1.01376180           0.72715860
    S   1 1.00
                         0.27000580           1.00000000
    P   1 1.00
                         0.27000580           1.00000000
    D   1 1.00
                         0.80000000           1.00000000
    ****
    O   3
    S   6 1.00
                      5484.67170000           0.00183110
                       825.23495000           0.01395010
                       188.04696000           0.06844510
                        52.96450000           0.23271430
                        16.89757000           0.47019300
                         5.79963530           0.35852090
    S   3 1.00
                        15.53961600          -0.11077750
                         3.59993360          -0.14802630
                         1.01376180           1.13076700
    P   3 1.00
                        15.53961600           0.07087430
                         3.59993360           0.33975280
                         1.01376180           0.72715860
    S   1 1.00
                         0.27000580           1.00000000
    P   1 1.00
                         0.27000580           1.00000000
    D   1 1.00
                         0.80000000           1.00000000
    ****

  ==> DirectJKGrad: Integral-Direct SCF Gradients <==

    Gradient:                    1
    J tasked:                  Yes
    K tasked:                  Yes
    wK tasked:                  No
    Integrals threads:           1
    Schwarz Cutoff:          0E+00

  ==> DFT Potential <==

   => Composite Functional: B3LYP <= 

    B3LYP Hyb-GGA Exchange-Correlation Functional

    P. J. Stephens, F. J. Devlin, C. F. Chabalowski, and M. J. Frisch, J. Phys. Chem. 98, 11623 (1994)

    Deriv               =              1
    GGA                 =           TRUE
    Meta                =          FALSE

    Exchange Hybrid     =           TRUE
    MP2 Hybrid          =          FALSE

   => Exchange Functionals <=

    0.0800   Slater exchange
    0.7200         Becke 88

   => Exact (HF) Exchange <=

    0.2000               HF 

   => Correlation Functionals <=

    0.1900   Vosko, Wilk & Nusair (VWN5_RPA)
    0.8100   Lee, Yang & Parr

   => XC_HYB_GGA_XC_B3LYP Functional <=

    B3LYP
    P. J. Stephens, F. J. Devlin, C. F. Chabalowski, and M. J. Frisch, J. Phys. Chem. 98, 11623 (1994)
    GGA   =           TRUE
    Meta  =          FALSE
    LRC   =          FALSE
    Alpha =   1.000000E+00
    Omega =   0.000000E+00

    > Parameters <


   => Molecular Quadrature <=

    Radial Scheme          =       TREUTLER
    Pruning Scheme         =           FLAT
    Nuclear Scheme         =       TREUTLER

    BS radius alpha        =              1
    Pruning alpha          =              1
    Radial Points          =             75
    Spherical Points       =            302
    Total Points           =          63076
    Total Blocks           =            540
    Max Points             =            256
    Max Functions          =             45


  -Nuclear Gradient:
     Atom            X                  Y                   Z
    ------   -----------------  -----------------  -----------------
       1        0.017215075420    10.323107537701     0.000000000000
       2      -12.086569353501    -5.169079915678     0.000000000000
       3       12.069354278082    -5.154027622023     0.000000000000


  -Core Hamiltonian Gradient:
     Atom            X                  Y                   Z
    ------   -----------------  -----------------  -----------------
       1       -0.043650899844   -23.931088087632     0.000000000000
       2       25.611868650151    11.985771511328     0.000000000000
       3      -25.568217750309    11.945316576303     0.000000000000


  -Overlap Gradient:
     Atom            X                  Y                   Z
    ------   -----------------  -----------------  -----------------
       1        0.001457446896     0.444034843916    -0.000000000000
       2       -0.327602313051    -0.222627484760    -0.000000000000
       3        0.326144866155    -0.221407359156    -0.000000000000


  -Coulomb Gradient:
     Atom            X                  Y                   Z
    ------   -----------------  -----------------  -----------------
       1        0.027532893388    13.617770731858     0.000000000000
       2      -13.592011650592    -6.821944333038     0.000000000000
       3       13.564478757205    -6.795826398820     0.000000000000


  -Exchange Gradient:
     Atom            X                  Y                   Z
    ------   -----------------  -----------------  -----------------
       1       -0.000494394005    -0.162092050795    -0.000000000000
       2        0.113228888161     0.081253586330    -0.000000000000
       3       -0.112734494156     0.080838464465    -0.000000000000


  -XC Gradient:
     Atom            X                  Y                   Z
    ------   -----------------  -----------------  -----------------
       1       -0.001476450907    -0.436008135833     0.000000000000
       2        0.307505087519     0.218632341210    -0.000000000000
       3       -0.306028132380     0.217378700279    -0.000000000000


  -Total Gradient:
     Atom            X                  Y                   Z
    ------   -----------------  -----------------  -----------------
       1        0.000583670946    -0.144275160785     0.000000000000
       2        0.026419308686     0.072005705393     0.000000000000
       3       -0.027002475403     0.072272361047     0.000000000000


*** tstop() called on FACC02D75Y4MD6T.tld at Sun Sep 20 12:15:38 2020
Module time:
	user time   =       0.57 seconds =       0.01 minutes
	system time =       0.01 seconds =       0.00 minutes
	total time  =          1 seconds =       0.02 minutes
Total time:
	user time   =       4.04 seconds =       0.07 minutes
	system time =       0.11 seconds =       0.00 minutes
	total time  =          4 seconds =       0.07 minutes

			-----------------------------------------
			 OPTKING 2.0: for geometry optimizations 
			  - R.A. King,  Bethel University        
			-----------------------------------------
dynamic level          =                  0
conv_max_force         =           3.00e-04
conv_rms_force         =           0.00e+00
conv_max_DE            =           1.00e-06
conv_max_disp          =           1.20e-03
conv_rms_disp          =           0.00e+00
SD Hessian             =           1.00e+00
scale_connectivity     =           1.30e+00
interfragment_scale_connectivity =           1.80e+00
fragment_mode          =             single
interfragment_mode        =              fixed
intcos_generate_exit   =              false
print_params           =              false
print_lvl              = 3
ensure_bt_convergence =             false
rfo_follow_root        =              false
rfo_root               =                  0
rfo_normalization_max  =           1.00e+02
rsrfo_alpha_max        =          1.000e+08
step_type              =                RFO
opt. coordinates       = Redundant Internals
linesearch_static_N    =                  8
linesearch_static_min  =          1.000e-03
linesearch_static_max  =          1.000e-01
consecutive_backsteps  =                  0
intrafragment_H        =           Schlegel
interfragment_H        =            Default
H_update               =               BFGS
H_update_use_last      =                  2
freeze_intrafragment   =              false
intrafragment_step_limit=          5.00e-01
interfragment_step_limit=          5.00e-01
add_auxiliary_bonds   =               true
H_guess_every         =              false
auxiliary_bond_factor =          2.50e+00
H_update_limit         =               true
H_update_limit_scale   =           5.00e-01
H_update_limit_max     =           1.00e+00
H_update_den_tol       =           1.00e-07
interfragment_distance_inverse=       false
write_final_step_geometry=            false
maximum_H_bond_distance=           4.30e+00
read_cartesian_H       =              false
fb_fragments          =              false
fb_fragments_only     =              false
frozen_distance: 
frozen_bend: 
frozen_dihedral: 
frozen_cartesian: 
fixed_distance: 
fixed_bend: 
fixed_dihedral: 
print_trajectory_xyz_file =              false

	Internal coordinates to be generated automatically.
	Detected frag 1 with atoms:  1 2 3
	---Fragment 1 Bond Connectivity---
	 1 : 2 3
	 2 : 1
	 3 : 1

	---Fragment 1 Geometry and Gradient---
	 N           0.0010521588       -0.8893712531        0.0000000000
	 O           2.0338891335        0.3890190222        0.0000000000
	 O          -2.0348102674        0.3895991681        0.0000000000
	             0.0005836709       -0.1442751608        0.0000000000
	             0.0264193087        0.0720057054        0.0000000000
	            -0.0270024754        0.0722723610        0.0000000000

	Previous optimization step data not found.  Starting new optimization.

	---Fragment 1 Intrafragment Coordinates---
	 - Coordinate -           - BOHR/RAD -       - ANG/DEG -
	 R(1,2)           =         2.401397	       1.270765
	 R(1,3)           =         2.404267	       1.272283
	 B(2,1,3)         =         2.019303	     115.697564

	Current energy   :      -205.0458099034

B matrix
 -0.846523 -0.532353  0.000000  0.846523  0.532353  0.000000  0.000000  0.000000
  0.000000
  0.846770 -0.531959  0.000000  0.000000  0.000000  0.000000 -0.846770  0.531959
  0.000000
 -0.000429  0.704707  0.000000  0.221685 -0.352513  0.000000 -0.221256 -0.352195
  0.000000
Internal forces in au
  -0.060696250039724  -0.061310490020196   0.112599475002199
	Generating empirical Hessian (Schlegel '84) for each fragment.
diagonal Hessian values for simple coordinates.
  0.760131  0.755180  0.250000

Initial Hessian guess
  0.760131  0.000000  0.000000
  0.000000  0.755180  0.000000
  0.000000  0.000000  0.250000
	Projection matrix for redundancies.
  1.000000 -0.000000 -0.000000
 -0.000000  1.000000 -0.000000
  0.000000  0.000000  1.000000
Constraint matrix
  0.000000  0.000000  0.000000
  0.000000  0.000000  0.000000
  0.000000  0.000000  0.000000
	Internal forces in au, after projection of redundancies and constraints.
 -0.060696 -0.061310  0.112599
Projected (PHP) Hessian matrix
  0.760131 -0.000000 -0.000000
 -0.000000  0.755180 -0.000000
  0.000000  0.000000  0.250000
	Taking RFO optimization step.
Eigenvalues of scaled RFO matrix.
 -0.051283  0.291268  0.757107  0.768219
First eigenvector (unnormalized) of scaled RFO matrix.
 -0.069722 -0.070860  0.348348  0.932079
	Going to follow RFO solution 1.
	Using RFO vector 1.
	rfo_root is 1

Scaled RFO eigenvalue 1:   -0.0512834309 (or 2*-0.0256417154  )
eigenvector:
 -0.074803 -0.076024  0.373733  1.000000

Projection of redundancies out of step:
	Original dq     Projected dq     Difference
	   -0.074803       -0.074803      -0.000000
	   -0.076024       -0.076024       0.000000
	    0.373733        0.373733      -0.000000
dq:
 -0.074803 -0.076024  0.373733
fq:
 -0.060696 -0.061310  0.112599
	lambda calculated by (dq^t).(-f)     =        -0.0512834309
	Analytic derivative d(norm)/d(alpha) =        -0.0425634770
	Final scaled step dq:
 -0.074803 -0.076024  0.373733
	Norm of target step-size    0.38865
	Projected energy change by RFO approximation:        -0.0420429734

	Back-transformation to cartesian coordinates...
	 In displace_util 
	       Original         Target           Dq
	   2.4013970645   2.3265940335  -0.0748030310
	   2.4042672806   2.3282434262  -0.0760238544
	   2.0193034279   2.3930361442   0.3737327163
	---------------------------------------------------
	 Iter        RMS(dx)        Max(dx)        RMS(dq) 
	---------------------------------------------------
	    1        1.4e-01        2.8e-01        3.5e-02
	    2        2.0e-02        4.3e-02        8.0e-05
	    3        4.7e-05        1.0e-04        4.5e-09
	    4        2.6e-09        5.5e-09        2.6e-16
	---------------------------------------------------

	Report of back-transformation:
	  int       q_target          Error
	-----------------------------------
	    1   2.3265940335   0.0000000000
	    2   2.3282434262  -0.0000000000
	    3   2.3930361442  -0.0000000000

	Successfully converged to displaced geometry.

	--- Internal Coordinate Step in ANG or DEG, aJ/ANG or AJ/DEG ---
	 ---------------------------------------------------------------------------
	   Coordinate                Previous        Force       Change         New 
	   ----------                --------       ------       ------       ------
	    1 R(1,2)          =      1.270765    -0.500060    -0.039584     1.231181
	    2 R(1,3)          =      1.272283    -0.505120    -0.040230     1.232053
	    3 B(2,1,3)        =    115.697564     0.008568    21.413307   137.110871
	 ---------------------------------------------------------------------------
	Successfully symmetrized geometry.
Symmetrized geometry
  0.000567 -0.604189  0.000000
  2.166077  0.246462  0.000000
 -2.166514  0.246973  0.000000

  ==> Convergence Check <==

  Measures of convergence in internal coordinates in au.
  Criteria marked as inactive (o), active & met (*), and active & unmet ( ).
  --------------------------------------------------------------------------------------------- ~
   Step     Total Energy     Delta E     MAX Force     RMS Force      MAX Disp      RMS Disp    ~
  --------------------------------------------------------------------------------------------- ~
    Convergence Criteria    1.00e-06 *    3.00e-04 *             o    1.20e-03 *             o  ~
  --------------------------------------------------------------------------------------------- ~
      1    -205.04580990   -2.05e+02      1.13e-01      8.19e-02 o    3.74e-01      2.24e-01 o  ~
  ---------------------------------------------------------------------------------------------

	Writing optimization data to binary file.
	Structure for next step:
	Cartesian Geometry (in Angstrom)
	    N     0.0003002782  -0.3197227900   0.0000000000
	    O     1.1462387741   0.1304221603   0.0000000000
	    O    -1.1464697169   0.1306926331   0.0000000000
			--------------------------
			 OPTKING Finished Execution 
			--------------------------

    Structure for next step:
    Molecular point group: cs
    Full point group: Cs

    Geometry (in Angstrom), charge = 0, multiplicity = 2:

    N            0.000289169797    -0.313187151167     0.000000000000
    O            1.146227670183     0.136957800989     0.000000000000
    O           -1.146480829775     0.137228273731     0.000000000000

gradient() will perform analytic gradient computation.

*** tstart() called on FACC02D75Y4MD6T.tld
*** at Sun Sep 20 12:15:38 2020

   => Loading Basis Set <=

    Name: 6-31G(D_P)
    Role: ORBITAL
    Keyword: BASIS
    atoms 1   entry N          line   132 file /Users/blais.ch/anaconda3/envs/rmg_env/share/psi4/basis/6-31g_d_p_.gbs 
    atoms 2-3 entry O          line   149 file /Users/blais.ch/anaconda3/envs/rmg_env/share/psi4/basis/6-31g_d_p_.gbs 


         ---------------------------------------------------------
                                   SCF
               by Justin Turney, Rob Parrish, Andy Simmonett
                          and Daniel G. A. Smith
                              UKS Reference
                        1 Threads,    976 MiB Core
         ---------------------------------------------------------

  ==> Geometry <==

    Molecular point group: cs
    Full point group: Cs

    Geometry (in Angstrom), charge = 0, multiplicity = 2:

       Center              X                  Y                   Z               Mass       
    ------------   -----------------  -----------------  -----------------  -----------------
         N            0.000289169797    -0.313187151167     0.000000000000    14.003074004430
         O            1.146227670183     0.136957800989     0.000000000000    15.994914619570
         O           -1.146480829775     0.137228273731     0.000000000000    15.994914619570

           N
              BASIS           6-31G(D_P)           be17c05ec1461ad3097843c20da1040adf86ba79
              DF_BASIS_SCF    (6-31G(D_P) AUX)     8eb73939244d0ff71e080d82475ea73ba87737d3
           O
              BASIS           6-31G(D_P)           ec2d227169b1af6c6a69bc8715bab79dbd7bb644
              DF_BASIS_SCF    (6-31G(D_P) AUX)     b57462463db1b385e39e4428a46364991bcd7673
           O
              BASIS           6-31G(D_P)           ec2d227169b1af6c6a69bc8715bab79dbd7bb644
              DF_BASIS_SCF    (6-31G(D_P) AUX)     b57462463db1b385e39e4428a46364991bcd7673

  Running in cs symmetry.

  Rotational constants: A =      8.53663  B =      0.40100  C =      0.38301 [cm^-1]
  Rotational constants: A = 255921.73042  B =  12021.74627  C =  11482.36988 [MHz]
  Nuclear repulsion =   62.893747755777412

  Charge       = 0
  Multiplicity = 2
  Electrons    = 23
  Nalpha       = 12
  Nbeta        = 11

  ==> Algorithm <==

  SCF Algorithm Type is DIRECT.
  DIIS enabled.
  MOM disabled.
  Fractional occupation disabled.
  Guess Type is READ.
  Energy threshold   = 1.00e-08
  Density threshold  = 1.00e-08
  Integral threshold = 0.00e+00

  ==> Primary Basis <==

  -AO BASIS SET INFORMATION:
    Name                   = 6-31G(D_P)
    Blend                  = 6-31G(D_P)
    Total number of shells = 18
    Number of primitives   = 45
    Number of AO           = 45
    Number of SO           = 45
    Maximum AM             = 2
    Spherical Harmonics    = FALSE

  -Contraction Scheme:
    Atom   Type   All Primitives // Shells:
   ------ ------ --------------------------
       1     N     10s 4p 1d // 3s 2p 1d 
       2     O     10s 4p 1d // 3s 2p 1d 
       3     O     10s 4p 1d // 3s 2p 1d 

  ==> AO Basis Functions <==

    [ 6-31G(D_P) ]
    cartesian
    ****
    N   1
    S   6 1.00
                      4173.51100000           0.00183480
                       627.45790000           0.01399500
                       142.90210000           0.06858700
                        40.23433000           0.23224100
                        12.82021000           0.46907000
                         4.39043700           0.36045500
    S   3 1.00
                        11.62635800          -0.11496100
                         2.71628000          -0.16911800
                         0.77221800           1.14585200
    P   3 1.00
                        11.62635800           0.06758000
                         2.71628000           0.32390700
                         0.77221800           0.74089500
    S   1 1.00
                         0.21203130           1.00000000
    P   1 1.00
                         0.21203130           1.00000000
    D   1 1.00
                         0.80000000           1.00000000
    ****
    O   2
    S   6 1.00
                      5484.67170000           0.00183110
                       825.23495000           0.01395010
                       188.04696000           0.06844510
                        52.96450000           0.23271430
                        16.89757000           0.47019300
                         5.79963530           0.35852090
    S   3 1.00
                        15.53961600          -0.11077750
                         3.59993360          -0.14802630
                         1.01376180           1.13076700
    P   3 1.00
                        15.53961600           0.07087430
                         3.59993360           0.33975280
                         1.01376180           0.72715860
    S   1 1.00
                         0.27000580           1.00000000
    P   1 1.00
                         0.27000580           1.00000000
    D   1 1.00
                         0.80000000           1.00000000
    ****
    O   3
    S   6 1.00
                      5484.67170000           0.00183110
                       825.23495000           0.01395010
                       188.04696000           0.06844510
                        52.96450000           0.23271430
                        16.89757000           0.47019300
                         5.79963530           0.35852090
    S   3 1.00
                        15.53961600          -0.11077750
                         3.59993360          -0.14802630
                         1.01376180           1.13076700
    P   3 1.00
                        15.53961600           0.07087430
                         3.59993360           0.33975280
                         1.01376180           0.72715860
    S   1 1.00
                         0.27000580           1.00000000
    P   1 1.00
                         0.27000580           1.00000000
    D   1 1.00
                         0.80000000           1.00000000
    ****

  ==> DFT Potential <==

   => Composite Functional: B3LYP <= 

    B3LYP Hyb-GGA Exchange-Correlation Functional

    P. J. Stephens, F. J. Devlin, C. F. Chabalowski, and M. J. Frisch, J. Phys. Chem. 98, 11623 (1994)

    Deriv               =              1
    GGA                 =           TRUE
    Meta                =          FALSE

    Exchange Hybrid     =           TRUE
    MP2 Hybrid          =          FALSE

   => Exchange Functionals <=

    0.0800   Slater exchange
    0.7200         Becke 88

   => Exact (HF) Exchange <=

    0.2000               HF 

   => Correlation Functionals <=

    0.1900   Vosko, Wilk & Nusair (VWN5_RPA)
    0.8100   Lee, Yang & Parr

   => XC_HYB_GGA_XC_B3LYP Functional <=

    B3LYP
    P. J. Stephens, F. J. Devlin, C. F. Chabalowski, and M. J. Frisch, J. Phys. Chem. 98, 11623 (1994)
    GGA   =           TRUE
    Meta  =          FALSE
    LRC   =          FALSE
    Alpha =   1.000000E+00
    Omega =   0.000000E+00

    > Parameters <


   => Molecular Quadrature <=

    Radial Scheme          =       TREUTLER
    Pruning Scheme         =           FLAT
    Nuclear Scheme         =       TREUTLER

    BS radius alpha        =              1
    Pruning alpha          =              1
    Radial Points          =             75
    Spherical Points       =            302
    Total Points           =          63059
    Total Blocks           =            555
    Max Points             =            256
    Max Functions          =             45

   => Loading Basis Set <=

    Name: (6-31G(D_P) AUX)
    Role: JKFIT
    Keyword: DF_BASIS_SCF
    atoms 1   entry N          line   171 file /Users/blais.ch/anaconda3/envs/rmg_env/share/psi4/basis/cc-pvdz-jkfit.gbs 
    atoms 2-3 entry O          line   221 file /Users/blais.ch/anaconda3/envs/rmg_env/share/psi4/basis/cc-pvdz-jkfit.gbs 

   => Loading Basis Set <=

    Name: 6-31G(D_P)
    Role: ORBITAL
    Keyword: BASIS
    atoms 1   entry N          line   132 file /Users/blais.ch/anaconda3/envs/rmg_env/share/psi4/basis/6-31g_d_p_.gbs 
    atoms 2-3 entry O          line   149 file /Users/blais.ch/anaconda3/envs/rmg_env/share/psi4/basis/6-31g_d_p_.gbs 

  Reading orbitals from file 180, no projection.

  Starting with a DF guess...

  ==> Pre-Iterations <==

   -------------------------------------------------------
    Irrep   Nso     Nmo     Nalpha   Nbeta   Ndocc  Nsocc
   -------------------------------------------------------
     A'        33      33       0       0       0       0
     A"        12      12       0       0       0       0
   -------------------------------------------------------
    Total      45      45      12      11      11       1
   -------------------------------------------------------

  ==> Integral Setup <==

  DFHelper Memory: AOs need 0.005 GiB; user supplied 0.638 GiB. Using in-core AOs.

  ==> MemDFJK: Density-Fitted J/K Matrices <==

    J tasked:                   Yes
    K tasked:                   Yes
    wK tasked:                   No
    OpenMP threads:               1
    Memory [MiB]:               653
    Algorithm:                 Core
    Schwarz Cutoff:           1E-12
    Mask sparsity (%):       0.0988
    Fitting Condition:        1E-10

   => Auxiliary Basis Set <=

  -AO BASIS SET INFORMATION:
    Name                   = (6-31G(D_P) AUX)
    Blend                  = CC-PVDZ-JKFIT
    Total number of shells = 72
    Number of primitives   = 72
    Number of AO           = 243
    Number of SO           = 243
    Maximum AM             = 3
    Spherical Harmonics    = FALSE

  -Contraction Scheme:
    Atom   Type   All Primitives // Shells:
   ------ ------ --------------------------
       1     N     10s 7p 5d 2f // 10s 7p 5d 2f 
       2     O     10s 7p 5d 2f // 10s 7p 5d 2f 
       3     O     10s 7p 5d 2f // 10s 7p 5d 2f 

  ==> AO Basis Functions <==

    [ (6-31G(D_P) AUX) ]
    cartesian
    ****
    N   1
    S   1 1.00
                      1102.86224530           1.00000000
    S   1 1.00
                       370.98041153           1.00000000
    S   1 1.00
                       136.73555938           1.00000000
    S   1 1.00
                        50.75587192           1.00000000
    S   1 1.00
                        20.53565610           1.00000000
    S   1 1.00
                         7.83187372           1.00000000
    S   1 1.00
                         3.47840639           1.00000000
    S   1 1.00
                         1.45528566           1.00000000
    S   1 1.00
                         0.63068989           1.00000000
    S   1 1.00
                         0.27276596           1.00000000
    P   1 1.00
                        93.54095407           1.00000000
    P   1 1.00
                        29.52401953           1.00000000
    P   1 1.00
                        10.91750299           1.00000000
    P   1 1.00
                         4.34492890           1.00000000
    P   1 1.00
                         1.82169126           1.00000000
    P   1 1.00
                         0.75792424           1.00000000
    P   1 1.00
                         0.28241469           1.00000000
    D   1 1.00
                        16.41937893           1.00000000
    D   1 1.00
                         5.01040494           1.00000000
    D   1 1.00
                         1.97939719           1.00000000
    D   1 1.00
                         0.78495772           1.00000000
    D   1 1.00
                         0.28954066           1.00000000
    F   1 1.00
                         1.79354240           1.00000000
    F   1 1.00
                         0.60854240           1.00000000
    ****
    O   2
    S   1 1.00
                      1517.86675060           1.00000000
    S   1 1.00
                       489.67952008           1.00000000
    S   1 1.00
                       176.72118665           1.00000000
    S   1 1.00
                        63.79223314           1.00000000
    S   1 1.00
                        25.36649913           1.00000000
    S   1 1.00
                         9.91354912           1.00000000
    S   1 1.00
                         4.46453066           1.00000000
    S   1 1.00
                         1.80177437           1.00000000
    S   1 1.00
                         0.80789711           1.00000000
    S   1 1.00
                         0.33864327           1.00000000
    P   1 1.00
                       120.16030921           1.00000000
    P   1 1.00
                        34.40962247           1.00000000
    P   1 1.00
                        12.58114861           1.00000000
    P   1 1.00
                         5.06638242           1.00000000
    P   1 1.00
                         2.03469271           1.00000000
    P   1 1.00
                         0.86092967           1.00000000
    P   1 1.00
                         0.36681357           1.00000000
    D   1 1.00
                        19.04306281           1.00000000
    D   1 1.00
                         5.80603811           1.00000000
    D   1 1.00
                         2.18918416           1.00000000
    D   1 1.00
                         0.87794614           1.00000000
    D   1 1.00
                         0.35623647           1.00000000
    F   1 1.00
                         2.49391479           1.00000000
    F   1 1.00
                         0.82491479           1.00000000
    ****
    O   3
    S   1 1.00
                      1517.86675060           1.00000000
    S   1 1.00
                       489.67952008           1.00000000
    S   1 1.00
                       176.72118665           1.00000000
    S   1 1.00
                        63.79223314           1.00000000
    S   1 1.00
                        25.36649913           1.00000000
    S   1 1.00
                         9.91354912           1.00000000
    S   1 1.00
                         4.46453066           1.00000000
    S   1 1.00
                         1.80177437           1.00000000
    S   1 1.00
                         0.80789711           1.00000000
    S   1 1.00
                         0.33864327           1.00000000
    P   1 1.00
                       120.16030921           1.00000000
    P   1 1.00
                        34.40962247           1.00000000
    P   1 1.00
                        12.58114861           1.00000000
    P   1 1.00
                         5.06638242           1.00000000
    P   1 1.00
                         2.03469271           1.00000000
    P   1 1.00
                         0.86092967           1.00000000
    P   1 1.00
                         0.36681357           1.00000000
    D   1 1.00
                        19.04306281           1.00000000
    D   1 1.00
                         5.80603811           1.00000000
    D   1 1.00
                         2.18918416           1.00000000
    D   1 1.00
                         0.87794614           1.00000000
    D   1 1.00
                         0.35623647           1.00000000
    F   1 1.00
                         2.49391479           1.00000000
    F   1 1.00
                         0.82491479           1.00000000
    ****

  Cached 100.0% of DFT collocation blocks in 0.077 [GiB].

  Minimum eigenvalue in the overlap matrix is 5.4916240883E-03.
  Using Symmetric Orthogonalization.

  SCF Guess: Orbitals guess was supplied from a previous computation.

  ==> Iterations <==

                           Total Energy        Delta E     RMS |[F,P]|

   @DF-UKS iter   0:  -205.09870714034798   -2.05099e+02   1.39446e-02 
DIIS coefficients:  1.000 
    Occupation by irrep:
             Ap   App 
    DOCC [     9,    2 ]
    SOCC [     1,    0 ]

   @DF-UKS iter   1:  -205.06643434707240    3.22728e-02   1.57317e-03 DIIS
DIIS coefficients:  0.630  0.370 
    Occupation by irrep:
             Ap   App 
    DOCC [     9,    2 ]
    SOCC [     1,    0 ]

   @DF-UKS iter   2:  -205.06619771051820    2.36637e-04   2.43211e-03 DIIS
DIIS coefficients:  0.135  0.180  0.685 
    Occupation by irrep:
             Ap   App 
    DOCC [     9,    2 ]
    SOCC [     1,    0 ]

   @DF-UKS iter   3:  -205.06867396052459   -2.47625e-03   5.55275e-04 DIIS
DIIS coefficients:  -0.000  0.000  0.213  0.787 
    Occupation by irrep:
             Ap   App 
    DOCC [     9,    2 ]
    SOCC [     1,    0 ]

   @DF-UKS iter   4:  -205.06882422368022   -1.50263e-04   1.99132e-04 DIIS
DIIS coefficients:  -0.043  -0.062  -0.011  0.789  0.327 
    Occupation by irrep:
             Ap   App 
    DOCC [     9,    2 ]
    SOCC [     1,    0 ]

   @DF-UKS iter   5:  -205.06879116607126    3.30576e-05   3.48883e-04 DIIS
DIIS coefficients:  -0.005  -0.013  -0.026  0.079  0.074  0.893 
    Occupation by irrep:
             Ap   App 
    DOCC [     9,    2 ]
    SOCC [     1,    0 ]

   @DF-UKS iter   6:  -205.06885204398577   -6.08779e-05   2.47469e-05 DIIS
DIIS coefficients:  0.004  0.003  -0.002  -0.073  -0.026  0.061  1.033 
    Occupation by irrep:
             Ap   App 
    DOCC [     9,    2 ]
    SOCC [     1,    0 ]

   @DF-UKS iter   7:  -205.06885267441479   -6.30429e-07   8.16062e-06 DIIS
DIIS coefficients:  0.001  0.002  0.002  -0.025  -0.013  -0.090  0.236  0.887 
    Occupation by irrep:
             Ap   App 
    DOCC [     9,    2 ]
    SOCC [     1,    0 ]

   @DF-UKS iter   8:  -205.06885278391130   -1.09497e-07   3.01997e-06 DIIS
DIIS coefficients:  -0.001  -0.001  0.001  0.014  0.006  -0.001  -0.194  -0.091  1.268 
    Occupation by irrep:
             Ap   App 
    DOCC [     9,    2 ]
    SOCC [     1,    0 ]

   @DF-UKS iter   9:  -205.06885279853969   -1.46284e-08   9.36406e-07 DIIS
DIIS coefficients:  -0.000  -0.000  -0.000  0.002  0.001  0.003  -0.024  -0.041  0.117  0.943 
    Occupation by irrep:
             Ap   App 
    DOCC [     9,    2 ]
    SOCC [     1,    0 ]

   @DF-UKS iter  10:  -205.06885280085152   -2.31182e-09   1.68165e-07 DIIS
DIIS coefficients:  0.000  1.197  -0.000  -0.000  -0.000  0.000  0.009  0.005  -0.068  -0.142 
    Occupation by irrep:
             Ap   App 
    DOCC [     9,    2 ]
    SOCC [     1,    0 ]

   @DF-UKS iter  11:  -205.06885280090896   -5.74403e-11   6.05074e-08 DIIS
DIIS coefficients:  1.732  -0.704  0.000  0.000  0.000  -0.001  -0.004  0.002  0.033  -0.059 
    Occupation by irrep:
             Ap   App 
    DOCC [     9,    2 ]
    SOCC [     1,    0 ]

   @DF-UKS iter  12:  -205.06885280092487   -1.59162e-11   3.06910e-08 DIIS
DIIS coefficients:  -0.879  0.146  1.686  -0.000  0.000  0.000  0.000  -0.002  -0.005  0.053 
    Occupation by irrep:
             Ap   App 
    DOCC [     9,    2 ]
    SOCC [     1,    0 ]

   @DF-UKS iter  13:  -205.06885280093093   -6.05382e-12   1.09232e-08 DIIS
DIIS coefficients:  -0.433  0.079  0.638  -0.000  0.688  0.000  0.000  -0.001  -0.002  0.031 
    Occupation by irrep:
             Ap   App 
    DOCC [     9,    2 ]
    SOCC [     1,    0 ]

   @DF-UKS iter  14:  -205.06885280093186   -9.37916e-13   5.79826e-09 DIIS

  DF guess converged.

  ==> DirectJK: Integral-Direct J/K Matrices <==

    J tasked:                  Yes
    K tasked:                  Yes
    wK tasked:                  No
    Integrals threads:           1
    Schwarz Cutoff:          1E-12

DIIS coefficients:  1.000 
    Occupation by irrep:
             Ap   App 
    DOCC [     9,    2 ]
    SOCC [     1,    0 ]

   @UKS iter  15:  -205.06894821667152   -2.05069e+02   8.36458e-06 DIIS
DIIS coefficients:  0.177  0.823 
    Occupation by irrep:
             Ap   App 
    DOCC [     9,    2 ]
    SOCC [     1,    0 ]

   @UKS iter  16:  -205.06894825105636   -3.43848e-08   3.04870e-06 DIIS
DIIS coefficients:  0.027  0.581  0.392 
    Occupation by irrep:
             Ap   App 
    DOCC [     9,    2 ]
    SOCC [     1,    0 ]

   @UKS iter  17:  -205.06894824752908    3.52728e-09   4.24799e-06 DIIS
DIIS coefficients:  -0.009  0.186  0.188  0.635 
    Occupation by irrep:
             Ap   App 
    DOCC [     9,    2 ]
    SOCC [     1,    0 ]

   @UKS iter  18:  -205.06894825541417   -7.88509e-09   7.00694e-07 DIIS
DIIS coefficients:  -0.003  0.038  0.044  0.190  0.732 
    Occupation by irrep:
             Ap   App 
    DOCC [     9,    2 ]
    SOCC [     1,    0 ]

   @UKS iter  19:  -205.06894825562588   -2.11713e-10   7.96512e-08 DIIS
DIIS coefficients:  -0.002  0.021  0.024  0.115  0.529  0.313 
    Occupation by irrep:
             Ap   App 
    DOCC [     9,    2 ]
    SOCC [     1,    0 ]

   @UKS iter  20:  -205.06894825562716   -1.27898e-12   6.96195e-08 DIIS
DIIS coefficients:  0.001  -0.011  -0.013  -0.036  -0.047  0.299  0.806 
    Occupation by irrep:
             Ap   App 
    DOCC [     9,    2 ]
    SOCC [     1,    0 ]

   @UKS iter  21:  -205.06894825562918   -2.01794e-12   2.92774e-08 DIIS
DIIS coefficients:  0.000  -0.002  -0.002  -0.008  -0.036  -0.009  0.035  1.022 
    Occupation by irrep:
             Ap   App 
    DOCC [     9,    2 ]
    SOCC [     1,    0 ]

   @UKS iter  22:  -205.06894825562989   -7.10543e-13   3.45944e-09 DIIS
  Energy and wave function converged.


  ==> Post-Iterations <==

   @Spin Contamination Metric:   3.614636481E-03
   @S^2 Expected:                7.500000000E-01
   @S^2 Observed:                7.536146365E-01
   @S   Expected:                5.000000000E-01
   @S   Observed:                5.000000000E-01

    Orbital Energies [Eh]
    ---------------------

    Alpha Occupied:                                                       

       1Ap   -19.272448     2Ap   -19.272233     3Ap   -14.589427  
       4Ap    -1.257896     5Ap    -1.124329     6Ap    -0.685136  
       7Ap    -0.571112     8Ap    -0.564220     1App   -0.552241  
       9Ap    -0.385221     2App   -0.377866    10Ap    -0.289158  

    Alpha Virtual:                                                        

       3App   -0.104451    11Ap     0.156181    12Ap     0.352129  
      13Ap     0.581450    14Ap     0.582748    15Ap     0.598518  
       4App    0.616645    16Ap     0.779518    17Ap     0.822747  
       5App    0.874508    18Ap     0.901465     6App    0.942121  
      19Ap     0.949301    20Ap     1.297294     7App    1.356964  
      21Ap     1.365618     8App    1.406344    22Ap     1.446734  
      23Ap     1.705767     9App    1.725237    24Ap     1.780512  
      25Ap     1.804620    10App    1.824308    26Ap     2.154930  
      11App    2.270407    27Ap     2.612974    28Ap     2.655542  
      12App    2.681682    29Ap     2.734925    30Ap     2.847823  
      31Ap     3.386754    32Ap     3.608047    33Ap     3.696002  

    Beta Occupied:                                                        

       1Ap   -19.263459     2Ap   -19.263231     3Ap   -14.578649  
       4Ap    -1.238631     5Ap    -1.102719     6Ap    -0.652631  
       7Ap    -0.546948     1App   -0.541247     8Ap    -0.518023  
       2App   -0.370322     9Ap    -0.344574  

    Beta Virtual:                                                         

      10Ap    -0.144412     3App   -0.088140    11Ap     0.169747  
      12Ap     0.379467    13Ap     0.587594    14Ap     0.592772  
       4App    0.624538    15Ap     0.630144    16Ap     0.785329  
      17Ap     0.842517     5App    0.878843    18Ap     0.927520  
       6App    0.948531    19Ap     0.963578    20Ap     1.311973  
       7App    1.362006    21Ap     1.379326     8App    1.427637  
      22Ap     1.467465    23Ap     1.723669     9App    1.736784  
      24Ap     1.788337    25Ap     1.826625    10App    1.847097  
      26Ap     2.171862    11App    2.280114    27Ap     2.642069  
      28Ap     2.675626    12App    2.692397    29Ap     2.744847  
      30Ap     2.863326    31Ap     3.404579    32Ap     3.620680  
      33Ap     3.715817  

    Final Occupation by Irrep:
             Ap   App 
    DOCC [     9,    2 ]
    SOCC [     1,    0 ]

  @UKS Final Energy:  -205.06894825562989

   => Energetics <=

    Nuclear Repulsion Energy =             62.8937477557774116
    One-Electron Energy =                -404.6980267323290832
    Two-Electron Energy =                 156.0373131856625832
    DFT Exchange-Correlation Energy =     -19.3019824647407603
    Empirical Dispersion Energy =           0.0000000000000000
    VV10 Nonlocal Energy =                  0.0000000000000000
    Total Energy =                       -205.0689482556298913

  UHF NO Occupations:
  HONO-2 :    8 Ap 1.9994385
  HONO-1 :    9 Ap 1.9990160
  HONO-0 :   10 Ap 1.0000000
  LUNO+0 :   11 Ap 0.0009840
  LUNO+1 :   12 Ap 0.0005615
  LUNO+2 :    3App 0.0001284
  LUNO+3 :   13 Ap 0.0000648


Computation Completed


Properties will be evaluated at   0.000000,   0.000000,   0.000000 [a0]

Properties computed using the SCF density matrix

  Nuclear Dipole Moment: [e a0]
     X:    -0.0000      Y:     0.0022      Z:     0.0000

  Electronic Dipole Moment: [e a0]
     X:     0.0015      Y:    -0.1012      Z:     0.0000

  Dipole Moment: [e a0]
     X:     0.0015      Y:    -0.0989      Z:     0.0000     Total:     0.0990

  Dipole Moment: [D]
     X:     0.0037      Y:    -0.2515      Z:     0.0000     Total:     0.2515


*** tstop() called on FACC02D75Y4MD6T.tld at Sun Sep 20 12:15:41 2020
Module time:
	user time   =       2.97 seconds =       0.05 minutes
	system time =       0.07 seconds =       0.00 minutes
	total time  =          3 seconds =       0.05 minutes
Total time:
	user time   =       7.02 seconds =       0.12 minutes
	system time =       0.18 seconds =       0.00 minutes
	total time  =          7 seconds =       0.12 minutes

*** tstart() called on FACC02D75Y4MD6T.tld
*** at Sun Sep 20 12:15:41 2020


         ------------------------------------------------------------
                                   SCF GRAD                          
                          Rob Parrish, Justin Turney,                
                       Andy Simmonett, and Alex Sokolov              
         ------------------------------------------------------------

  ==> Geometry <==

    Molecular point group: cs
    Full point group: Cs

    Geometry (in Angstrom), charge = 0, multiplicity = 2:

       Center              X                  Y                   Z               Mass       
    ------------   -----------------  -----------------  -----------------  -----------------
         N            0.000289169797    -0.313187151167     0.000000000000    14.003074004430
         O            1.146227670183     0.136957800989     0.000000000000    15.994914619570
         O           -1.146480829775     0.137228273731     0.000000000000    15.994914619570

           N
              BASIS           6-31G(D_P)           be17c05ec1461ad3097843c20da1040adf86ba79
              DF_BASIS_SCF    (6-31G(D_P) AUX)     8eb73939244d0ff71e080d82475ea73ba87737d3
           O
              BASIS           6-31G(D_P)           ec2d227169b1af6c6a69bc8715bab79dbd7bb644
              DF_BASIS_SCF    (6-31G(D_P) AUX)     b57462463db1b385e39e4428a46364991bcd7673
           O
              BASIS           6-31G(D_P)           ec2d227169b1af6c6a69bc8715bab79dbd7bb644
              DF_BASIS_SCF    (6-31G(D_P) AUX)     b57462463db1b385e39e4428a46364991bcd7673

  Nuclear repulsion =   62.893747755777412

  ==> Basis Set <==

  -AO BASIS SET INFORMATION:
    Name                   = 6-31G(D_P)
    Blend                  = 6-31G(D_P)
    Total number of shells = 18
    Number of primitives   = 45
    Number of AO           = 45
    Number of SO           = 45
    Maximum AM             = 2
    Spherical Harmonics    = FALSE

  -Contraction Scheme:
    Atom   Type   All Primitives // Shells:
   ------ ------ --------------------------
       1     N     10s 4p 1d // 3s 2p 1d 
       2     O     10s 4p 1d // 3s 2p 1d 
       3     O     10s 4p 1d // 3s 2p 1d 

  ==> AO Basis Functions <==

    [ 6-31G(D_P) ]
    cartesian
    ****
    N   1
    S   6 1.00
                      4173.51100000           0.00183480
                       627.45790000           0.01399500
                       142.90210000           0.06858700
                        40.23433000           0.23224100
                        12.82021000           0.46907000
                         4.39043700           0.36045500
    S   3 1.00
                        11.62635800          -0.11496100
                         2.71628000          -0.16911800
                         0.77221800           1.14585200
    P   3 1.00
                        11.62635800           0.06758000
                         2.71628000           0.32390700
                         0.77221800           0.74089500
    S   1 1.00
                         0.21203130           1.00000000
    P   1 1.00
                         0.21203130           1.00000000
    D   1 1.00
                         0.80000000           1.00000000
    ****
    O   2
    S   6 1.00
                      5484.67170000           0.00183110
                       825.23495000           0.01395010
                       188.04696000           0.06844510
                        52.96450000           0.23271430
                        16.89757000           0.47019300
                         5.79963530           0.35852090
    S   3 1.00
                        15.53961600          -0.11077750
                         3.59993360          -0.14802630
                         1.01376180           1.13076700
    P   3 1.00
                        15.53961600           0.07087430
                         3.59993360           0.33975280
                         1.01376180           0.72715860
    S   1 1.00
                         0.27000580           1.00000000
    P   1 1.00
                         0.27000580           1.00000000
    D   1 1.00
                         0.80000000           1.00000000
    ****
    O   3
    S   6 1.00
                      5484.67170000           0.00183110
                       825.23495000           0.01395010
                       188.04696000           0.06844510
                        52.96450000           0.23271430
                        16.89757000           0.47019300
                         5.79963530           0.35852090
    S   3 1.00
                        15.53961600          -0.11077750
                         3.59993360          -0.14802630
                         1.01376180           1.13076700
    P   3 1.00
                        15.53961600           0.07087430
                         3.59993360           0.33975280
                         1.01376180           0.72715860
    S   1 1.00
                         0.27000580           1.00000000
    P   1 1.00
                         0.27000580           1.00000000
    D   1 1.00
                         0.80000000           1.00000000
    ****

  ==> DirectJKGrad: Integral-Direct SCF Gradients <==

    Gradient:                    1
    J tasked:                  Yes
    K tasked:                  Yes
    wK tasked:                  No
    Integrals threads:           1
    Schwarz Cutoff:          0E+00

  ==> DFT Potential <==

   => Composite Functional: B3LYP <= 

    B3LYP Hyb-GGA Exchange-Correlation Functional

    P. J. Stephens, F. J. Devlin, C. F. Chabalowski, and M. J. Frisch, J. Phys. Chem. 98, 11623 (1994)

    Deriv               =              1
    GGA                 =           TRUE
    Meta                =          FALSE

    Exchange Hybrid     =           TRUE
    MP2 Hybrid          =          FALSE

   => Exchange Functionals <=

    0.0800   Slater exchange
    0.7200         Becke 88

   => Exact (HF) Exchange <=

    0.2000               HF 

   => Correlation Functionals <=

    0.1900   Vosko, Wilk & Nusair (VWN5_RPA)
    0.8100   Lee, Yang & Parr

   => XC_HYB_GGA_XC_B3LYP Functional <=

    B3LYP
    P. J. Stephens, F. J. Devlin, C. F. Chabalowski, and M. J. Frisch, J. Phys. Chem. 98, 11623 (1994)
    GGA   =           TRUE
    Meta  =          FALSE
    LRC   =          FALSE
    Alpha =   1.000000E+00
    Omega =   0.000000E+00

    > Parameters <


   => Molecular Quadrature <=

    Radial Scheme          =       TREUTLER
    Pruning Scheme         =           FLAT
    Nuclear Scheme         =       TREUTLER

    BS radius alpha        =              1
    Pruning alpha          =              1
    Radial Points          =             75
    Spherical Points       =            302
    Total Points           =          63059
    Total Blocks           =            555
    Max Points             =            256
    Max Functions          =             45


  -Nuclear Gradient:
     Atom            X                  Y                   Z
    ------   -----------------  -----------------  -----------------
       1        0.013478008252     7.559208820451     0.000000000000
       2      -13.038566778178    -3.782084823198     0.000000000000
       3       13.025088769926    -3.777123997253     0.000000000000


  -Core Hamiltonian Gradient:
     Atom            X                  Y                   Z
    ------   -----------------  -----------------  -----------------
[...]


   => Molecular Quadrature <=

    Radial Scheme          =       TREUTLER
    Pruning Scheme         =           FLAT
    Nuclear Scheme         =       TREUTLER

    BS radius alpha        =              1
    Pruning alpha          =              1
    Radial Points          =             75
    Spherical Points       =            302
    Total Points           =          63045
    Total Blocks           =            556
    Max Points             =            255
    Max Functions          =             45


  -Nuclear Gradient:
     Atom            X                  Y                   Z
    ------   -----------------  -----------------  -----------------
       1        0.000592165386     8.484192648787     0.000000000000
       2      -13.613805831077    -4.241238870651     0.000000000000
       3       13.613213665690    -4.242953778136     0.000000000000


  -Core Hamiltonian Gradient:
     Atom            X                  Y                   Z
    ------   -----------------  -----------------  -----------------
       1       -0.001297444621   -18.626073394757     0.000000000000
       2       30.116330016355     9.311141897109     0.000000000000
       3      -30.115032571732     9.314931497646     0.000000000000


  -Overlap Gradient:
     Atom            X                  Y                   Z
    ------   -----------------  -----------------  -----------------
       1        0.000026412159     0.361964405426    -0.000000000000
       2       -0.464198275631    -0.180953416485    -0.000000000000
       3        0.464171863472    -0.181010988941    -0.000000000000


  -Coulomb Gradient:
     Atom            X                  Y                   Z
    ------   -----------------  -----------------  -----------------
       1        0.000715479449    10.232220270266     0.000000000000
       2      -16.640731605236    -5.115064983153     0.000000000000
       3       16.640016125787    -5.117155287113     0.000000000000


  -Exchange Gradient:
     Atom            X                  Y                   Z
    ------   -----------------  -----------------  -----------------
       1       -0.000008795489    -0.120669453956    -0.000000000000
       2        0.159892886568     0.060324803888    -0.000000000000
       3       -0.159884091079     0.060344650068    -0.000000000000


  -XC Gradient:
     Atom            X                  Y                   Z
    ------   -----------------  -----------------  -----------------
       1       -0.000024535729    -0.332039545904    -0.000000000000
       2        0.443219898818     0.165985430315    -0.000000000000
       3       -0.443195364270     0.166040269298    -0.000000000000


  -Total Gradient:
     Atom            X                  Y                   Z
    ------   -----------------  -----------------  -----------------
       1        0.000003281155    -0.000405070138     0.000000000000
       2        0.000707089797     0.000194861023     0.000000000000
       3       -0.000710372130     0.000196362822     0.000000000000


*** tstop() called on FACC02D75Y4MD6T.tld at Sun Sep 20 12:16:21 2020
Module time:
	user time   =       0.55 seconds =       0.01 minutes
	system time =       0.01 seconds =       0.00 minutes
	total time  =          0 seconds =       0.00 minutes
Total time:
	user time   =      46.61 seconds =       0.78 minutes
	system time =       1.16 seconds =       0.02 minutes
	total time  =         47 seconds =       0.78 minutes

         ----------------------------------------------------------
                                   FINDIF
                     R. A. King and Jonathon Misiewicz
         ---------------------------------------------------------

  Computing second-derivative from gradients using projected, 
  symmetry-adapted, cartesian coordinates.

  7 gradients passed in, including the reference geometry.
  Generating complete list of displacements from unique ones.

    The atom map:
     1 :    1   1
     2 :    2   2
     3 :    3   3

    Symmetric gradients

[[-1.6973889806e-03  1.1325146208e-05  0.0000000000e+00]
 [ 8.3938125237e-04  3.4912211372e-04  0.0000000000e+00]
 [ 8.5815704305e-04 -3.7431278691e-04  0.0000000000e+00]]

[[ 1.7040776780e-03  1.1225735946e-05  0.0000000000e+00]
 [-8.6162392087e-04 -3.7568686019e-04  0.0000000000e+00]
 [-8.4260543796e-04  3.5059565486e-04  0.0000000000e+00]]

[[ 3.3730086515e-06 -6.9648492339e-04  0.0000000000e+00]
 [ 3.6653888700e-04  3.4041991959e-04  0.0000000000e+00]
 [-3.6991310653e-04  3.4192799394e-04  0.0000000000e+00]]

[[ 3.2696980067e-06  7.1250077290e-04  0.0000000000e+00]
 [-3.8331380486e-04 -3.6370760548e-04  0.0000000000e+00]
 [ 3.8004295181e-04 -3.6238175253e-04  0.0000000000e+00]]

[[ 3.3625612893e-06  4.2274735430e-04  0.0000000000e+00]
 [-7.2507383750e-04 -2.1898257739e-04  0.0000000000e+00]
 [ 7.2171008645e-04 -2.1765030134e-04  0.0000000000e+00]]

[[ 3.2811550581e-06 -4.0507013779e-04  0.0000000000e+00]
 [ 7.0708979670e-04  1.9486102317e-04  0.0000000000e+00]
 [-7.1037213042e-04  1.9636282175e-04  0.0000000000e+00]]
    All mass-weighted gradients

[[-4.5359649121e-04  3.0264403983e-06  0.0000000000e+00]
 [ 2.0987866927e-04  8.7294402197e-05  0.0000000000e+00]
 [ 2.1457336307e-04 -9.3593071545e-05  0.0000000000e+00]]

[[ 4.5538392456e-04  2.9998748044e-06  0.0000000000e+00]
 [-2.1544022030e-04 -9.3936644471e-05  0.0000000000e+00]
 [-2.1068484379e-04  8.7662846038e-05  0.0000000000e+00]]

[[ 9.0137552831e-07 -1.8612299304e-04  0.0000000000e+00]
 [ 9.1649287643e-05  8.5118507846e-05  0.0000000000e+00]
 [-9.2492976612e-05  8.5495586364e-05  0.0000000000e+00]]

[[ 8.7376762788e-07  1.9040293902e-04  0.0000000000e+00]
 [-9.5843683725e-05 -9.0941354750e-05  0.0000000000e+00]
 [ 9.5025840481e-05 -9.0609838824e-05  0.0000000000e+00]]

[[ 8.9858365981e-07  1.1297158092e-04  0.0000000000e+00]
 [-1.8129727309e-04 -5.4754346497e-05  0.0000000000e+00]
 [ 1.8045620165e-04 -5.4421224543e-05  0.0000000000e+00]]

[[ 8.7682931755e-07 -1.0824766468e-04  0.0000000000e+00]
 [ 1.7680054822e-04  4.8722999376e-05  0.0000000000e+00]
 [-1.7762126209e-04  4.9098508702e-05  0.0000000000e+00]]
Gradients in B-matrix coordinates
 disp 0:   -0.0005587393   0.0000049834  -0.0000033279
 disp 1:    0.0005609412   0.0000049479  -0.0000033543
 disp 2:    0.0000011106  -0.0002217927   0.0001302083
 disp 3:    0.0000010764   0.0002296294  -0.0001349651
 disp 4:    0.0000011071   0.0001368139  -0.0002557983
 disp 5:    0.0000010802  -0.0001284442   0.0002506141

    Force Constants for irrep Ap in mass-weighted, symmetry-adapted cartesian coordinates.

[[ 1.1196805309e-01 -3.4872685248e-06 -2.6645799860e-06]
 [-3.4872685248e-06  4.5142215951e-02 -2.6521573096e-02]
 [-2.6645799860e-06 -2.6521573096e-02  5.0641240146e-02]]

    Normal coordinates (non-mass-weighted) for irrep Ap:

[[-2.1695239042e-01 -2.0665619575e-06  1.0458482652e-05]
 [ 8.6740700423e-06 -1.4924558173e-01  1.6551786193e-01]
 [ 0.0000000000e+00  0.0000000000e+00  0.0000000000e+00]
 [ 9.4974751171e-02  1.3130856090e-01  1.1839404850e-01]
 [ 4.0463517016e-02  6.5320311127e-02 -7.2460675608e-02]
 [ 0.0000000000e+00  0.0000000000e+00  0.0000000000e+00]
 [ 9.4960640839e-02 -1.3130675169e-01 -1.1840320459e-01]
 [-4.0471110908e-02  6.5339775249e-02 -7.2445310126e-02]
 [ 0.0000000000e+00  0.0000000000e+00  0.0000000000e+00]]

    Force constant matrix for all computed irreps in mass-weighted SALCS.

[[ 1.1196805309e-01 -3.4872685248e-06 -2.6645799860e-06]
 [-3.4872685248e-06  4.5142215951e-02 -2.6521573096e-02]
 [-2.6645799860e-06 -2.6521573096e-02  5.0641240146e-02]]

    Force constants in mass-weighted Cartesian coordinates.

[[ 7.3798305674e-02 -2.1139931157e-06  0.0000000000e+00 -3.4527747504e-02
  -1.4710803856e-02  0.0000000000e+00 -3.4522798964e-02  1.4712781847e-02
   0.0000000000e+00]
 [-2.1139931157e-06  3.1398143559e-02  0.0000000000e+00 -1.5639301986e-02
  -1.4687278799e-02  0.0000000000e+00  1.5641279977e-02 -1.4690888505e-02
   0.0000000000e+00]
 [ 0.0000000000e+00  0.0000000000e+00  0.0000000000e+00  0.0000000000e+00
   0.0000000000e+00  0.0000000000e+00  0.0000000000e+00  0.0000000000e+00
   0.0000000000e+00]
 [-3.4527747504e-02 -1.5639301986e-02  0.0000000000e+00  4.1474992791e-02
   1.4197918402e-02  0.0000000000e+00 -9.1685622895e-03  4.3524070107e-04
   0.0000000000e+00]
 [-1.4710803856e-02 -1.4687278799e-02  0.0000000000e+00  1.4197918402e-02
   9.8031635370e-03  0.0000000000e+00 -4.3352319114e-04  3.9392200845e-03
   0.0000000000e+00]
 [ 0.0000000000e+00  0.0000000000e+00  0.0000000000e+00  0.0000000000e+00
   0.0000000000e+00  0.0000000000e+00  0.0000000000e+00  0.0000000000e+00
   0.0000000000e+00]
 [-3.4522798964e-02  1.5641279977e-02  0.0000000000e+00 -9.1685622895e-03
  -4.3352319114e-04  0.0000000000e+00  4.1470362612e-02 -1.4201486650e-02
   0.0000000000e+00]
 [ 1.4712781847e-02 -1.4690888505e-02  0.0000000000e+00  4.3524070107e-04
   3.9392200845e-03  0.0000000000e+00 -1.4201486650e-02  9.8065410152e-03
   0.0000000000e+00]
 [ 0.0000000000e+00  0.0000000000e+00  0.0000000000e+00  0.0000000000e+00
   0.0000000000e+00  0.0000000000e+00  0.0000000000e+00  0.0000000000e+00
   0.0000000000e+00]]

    Force constants in Cartesian coordinates.

[[ 1.0334031358e+00 -2.9602402044e-05  0.0000000000e+00 -5.1673859754e-01
  -2.2016032619e-01  0.0000000000e+00 -5.1666453822e-01  2.2018992859e-01
   0.0000000000e+00]
 [-2.9602402044e-05  4.3967052786e-01  0.0000000000e+00 -2.3405613047e-01
  -2.1980825269e-01  0.0000000000e+00  2.3408573287e-01 -2.1986227517e-01
   0.0000000000e+00]
 [ 0.0000000000e+00  0.0000000000e+00  0.0000000000e+00  0.0000000000e+00
   0.0000000000e+00  0.0000000000e+00  0.0000000000e+00  0.0000000000e+00
   0.0000000000e+00]
 [-5.1673859754e-01 -2.3405613047e-01  0.0000000000e+00  6.6338896855e-01
   2.2709449262e-01  0.0000000000e+00 -1.4665037100e-01  6.9616378525e-03
   0.0000000000e+00]
 [-2.2016032619e-01 -2.1980825269e-01  0.0000000000e+00  2.2709449262e-01
   1.5680076378e-01  0.0000000000e+00 -6.9341664278e-03  6.3007488919e-02
   0.0000000000e+00]
 [ 0.0000000000e+00  0.0000000000e+00  0.0000000000e+00  0.0000000000e+00
   0.0000000000e+00  0.0000000000e+00  0.0000000000e+00  0.0000000000e+00
   0.0000000000e+00]
 [-5.1666453822e-01  2.3408573287e-01  0.0000000000e+00 -1.4665037100e-01
  -6.9341664278e-03  0.0000000000e+00  6.6331490922e-01 -2.2715156644e-01
   0.0000000000e+00]
 [ 2.2018992859e-01 -2.1986227517e-01  0.0000000000e+00  6.9616378525e-03
   6.3007488919e-02  0.0000000000e+00 -2.2715156644e-01  1.5685478625e-01
   0.0000000000e+00]
 [ 0.0000000000e+00  0.0000000000e+00  0.0000000000e+00  0.0000000000e+00
   0.0000000000e+00  0.0000000000e+00  0.0000000000e+00  0.0000000000e+00
   0.0000000000e+00]]

-------------------------------------------------------------


  ==> Harmonic Vibrational Analysis <==

  non-mass-weighted Hessian:       Symmetric? True   Hermitian? True   Lin Dep Dim?  6 (0)
  projection of translations (True) and rotations (True) removed 6 degrees of freedom (6)
  total projector:                 Symmetric? True   Hermitian? True   Lin Dep Dim?  6 (6)
  mass-weighted Hessian:           Symmetric? True   Hermitian? True   Lin Dep Dim?  6 (0)
  pre-proj  low-frequency mode:    0.0000i [cm^-1]
  pre-proj  low-frequency mode:    0.0000i [cm^-1]
  pre-proj  low-frequency mode:    0.0000  [cm^-1]
  pre-proj  low-frequency mode:    0.0000  [cm^-1]
  pre-proj  low-frequency mode:    0.0000  [cm^-1]
  pre-proj  low-frequency mode:    0.0000  [cm^-1]
  pre-proj  all modes:['0.0000i' '0.0000i' '0.0000' '0.0000' '0.0000' '0.0000' '748.9606'
 '1403.6019' '1720.0907']
  projected mass-weighted Hessian: Symmetric? True   Hermitian? True   Lin Dep Dim?  6 (6)
  post-proj low-frequency mode:    0.0000i [cm^-1] (TR)
  post-proj low-frequency mode:    0.0000i [cm^-1] (TR)
  post-proj low-frequency mode:    0.0000i [cm^-1] (TR)
  post-proj low-frequency mode:    0.0000i [cm^-1] (TR)
  post-proj low-frequency mode:    0.0000  [cm^-1] (TR)
  post-proj low-frequency mode:    0.0000  [cm^-1] (TR)
  post-proj  all modes:['0.0000i' '0.0000i' '0.0000i' '0.0000i' '0.0000' '0.0000' '748.9606'
 '1403.6019' '1720.0907']

  Vibration                       7                   8                   9           
  Freq [cm^-1]                 748.9606           1403.6019           1720.0907       
  Irrep                           Ap                  Ap                  Ap          
  Reduced mass [u]             15.1673             15.3154             14.6239        
  Force const [mDyne/A]         5.0127             17.7774             25.4927        
  Turning point v=0 [a0]        0.1030              0.0748              0.0692        
  RMS dev v=0 [a0 u^1/2]        0.2835              0.2071              0.1871        
  Char temp [K]               1077.5875           2019.4707           2474.8275       
  ----------------------------------------------------------------------------------
      1   N                0.00  0.64 -0.00    0.00  0.58  0.00    0.83 -0.00 -0.00   
      2   O                0.46 -0.28 -0.00   -0.51 -0.26  0.00   -0.36 -0.15  0.00   
      3   O               -0.46 -0.28  0.00    0.51 -0.26 -0.00   -0.36  0.15 -0.00   

  ==> Thermochemistry Components <==

  Entropy, S
    Electronic S            1.377 [cal/(mol K)]        5.763 [J/(mol K)]       0.00219507 [mEh/K] (multiplicity = 2)
    Translational S        37.403 [cal/(mol K)]      156.494 [J/(mol K)]       0.05960524 [mEh/K] (mol. weight = 45.9929 [u], P = 101325.00 [Pa])
    Rotational S           19.709 [cal/(mol K)]       82.461 [J/(mol K)]       0.03140783 [mEh/K] (symmetry no. = 1)
    Vibrational S           0.275 [cal/(mol K)]        1.152 [J/(mol K)]       0.00043883 [mEh/K]
  Total S                  58.764 [cal/(mol K)]      245.870 [J/(mol K)]       0.09364696 [mEh/K]
  Correction S              0.000 [cal/(mol K)]        0.000 [J/(mol K)]       0.00000000 [mEh/K]

  Constant volume heat capacity, Cv
    Electronic Cv           0.000 [cal/(mol K)]        0.000 [J/(mol K)]       0.00000000 [mEh/K]
    Translational Cv        2.981 [cal/(mol K)]       12.472 [J/(mol K)]       0.00475022 [mEh/K]
    Rotational Cv           2.981 [cal/(mol K)]       12.472 [J/(mol K)]       0.00475022 [mEh/K]
    Vibrational Cv          0.877 [cal/(mol K)]        3.670 [J/(mol K)]       0.00139766 [mEh/K]
  Total Cv                  6.839 [cal/(mol K)]       28.613 [J/(mol K)]       0.01089809 [mEh/K]
  Correction Cv             0.000 [cal/(mol K)]        0.000 [J/(mol K)]       0.00000000 [mEh/K]

  Constant pressure heat capacity, Cp
    Electronic Cp           0.000 [cal/(mol K)]        0.000 [J/(mol K)]       0.00000000 [mEh/K]
    Translational Cp        4.968 [cal/(mol K)]       20.786 [J/(mol K)]       0.00791703 [mEh/K]
    Rotational Cp           2.981 [cal/(mol K)]       12.472 [J/(mol K)]       0.00475022 [mEh/K]
    Vibrational Cp          0.877 [cal/(mol K)]        3.670 [J/(mol K)]       0.00139766 [mEh/K]
  Total Cp                  8.826 [cal/(mol K)]       36.927 [J/(mol K)]       0.01406490 [mEh/K]
  Correction Cp             0.000 [cal/(mol K)]        0.000 [J/(mol K)]       0.00000000 [mEh/K]

  ==> Thermochemistry Energy Analysis <==

  Raw electronic energy, E0
  Total E0, Electronic energy at well bottom at 0 [K]                 -205.07220522 [Eh]

  Zero-point energy, ZPE_vib = Sum_i nu_i / 2
    Electronic ZPE          0.000 [kcal/mol]        0.000 [kJ/mol]       0.00000000 [Eh]
    Translational ZPE       0.000 [kcal/mol]        0.000 [kJ/mol]       0.00000000 [Eh]
    Rotational ZPE          0.000 [kcal/mol]        0.000 [kJ/mol]       0.00000000 [Eh]
    Vibrational ZPE         5.536 [kcal/mol]       23.164 [kJ/mol]       0.00882255 [Eh]        1936.327 [cm^-1]
  Correction ZPE            5.536 [kcal/mol]       23.164 [kJ/mol]       0.00882255 [Eh]        1936.327 [cm^-1]
  Total ZPE, Electronic energy at 0 [K]                               -205.06338267 [Eh]

  Thermal Energy, E (includes ZPE)
    Electronic E            0.000 [kcal/mol]        0.000 [kJ/mol]       0.00000000 [Eh]
    Translational E         0.889 [kcal/mol]        3.718 [kJ/mol]       0.00141628 [Eh]
    Rotational E            0.889 [kcal/mol]        3.718 [kJ/mol]       0.00141628 [Eh]
    Vibrational E           5.601 [kcal/mol]       23.436 [kJ/mol]       0.00892629 [Eh]
  Correction E              7.379 [kcal/mol]       30.873 [kJ/mol]       0.01175885 [Eh]
  Total E, Electronic energy at  298.15 [K]                           -205.06044637 [Eh]

  Enthalpy, H_trans = E_trans + k_B * T
    Electronic H            0.000 [kcal/mol]        0.000 [kJ/mol]       0.00000000 [Eh]
    Translational H         1.481 [kcal/mol]        6.197 [kJ/mol]       0.00236046 [Eh]
    Rotational H            0.889 [kcal/mol]        3.718 [kJ/mol]       0.00141628 [Eh]
    Vibrational H           5.601 [kcal/mol]       23.436 [kJ/mol]       0.00892629 [Eh]
  Correction H              7.971 [kcal/mol]       33.352 [kJ/mol]       0.01270303 [Eh]
  Total H, Enthalpy at  298.15 [K]                                    -205.05950219 [Eh]

  Gibbs free energy, G = H - T * S
    Electronic G           -0.411 [kcal/mol]       -1.718 [kJ/mol]      -0.00065446 [Eh]
    Translational G        -9.670 [kcal/mol]      -40.461 [kJ/mol]      -0.01541084 [Eh]
    Rotational G           -4.987 [kcal/mol]      -20.867 [kJ/mol]      -0.00794797 [Eh]
    Vibrational G           5.519 [kcal/mol]       23.092 [kJ/mol]       0.00879546 [Eh]
  Correction G             -9.549 [kcal/mol]      -39.954 [kJ/mol]      -0.01521781 [Eh]
  Total G, Free enthalpy at  298.15 [K]                               -205.08742303 [Eh]
  ## New Matrix (Symmetry 0) ##
  Irrep: 1 Size: 9 x 9

                 1                   2                   3                   4                   5

    1     1.03340313575950    -0.00002960240204     0.00000000000000    -0.51673859754093    -0.22016032619014
    2    -0.00002960240204     0.43967052786485     0.00000000000000    -0.23405613047045    -0.21980825269440
    3     0.00000000000000     0.00000000000000     0.00000000000000     0.00000000000000     0.00000000000000
    4    -0.51673859754093    -0.23405613047045     0.00000000000000     0.66338896854510     0.22709449261795
    5    -0.22016032619014    -0.21980825269440     0.00000000000000     0.22709449261795     0.15680076377532
    6     0.00000000000000     0.00000000000000     0.00000000000000     0.00000000000000     0.00000000000000
    7    -0.51666453821857     0.23408573287249     0.00000000000000    -0.14665037100418    -0.00693416642781
    8     0.22018992859218    -0.21986227517045     0.00000000000000     0.00696163785250     0.06300748891908
    9     0.00000000000000     0.00000000000000     0.00000000000000     0.00000000000000     0.00000000000000

                 6                   7                   8                   9

    1     0.00000000000000    -0.51666453821857     0.22018992859218     0.00000000000000
    2     0.00000000000000     0.23408573287249    -0.21986227517045     0.00000000000000
    3     0.00000000000000     0.00000000000000     0.00000000000000     0.00000000000000
    4     0.00000000000000    -0.14665037100418     0.00696163785250     0.00000000000000
    5     0.00000000000000    -0.00693416642781     0.06300748891908     0.00000000000000
    6     0.00000000000000     0.00000000000000     0.00000000000000     0.00000000000000
    7     0.00000000000000     0.66331490922275    -0.22715156644468     0.00000000000000
    8     0.00000000000000    -0.22715156644468     0.15685478625137     0.00000000000000
    9     0.00000000000000     0.00000000000000     0.00000000000000     0.00000000000000




    Psi4 stopped on: Sunday, 20 September 2020 12:16PM
    Psi4 wall time for execution: 0:00:47.99

*** Psi4 exiting successfully. Buy a developer a beer!
Optimizer: Optimization complete!
 7 displacements needed.
 1 2 3 4 5 6 7
