
Host: FACC02D75Y4MD6T.tld

Timers On : Sun Sep 20 12:10:25 2020
Timers Off: Sun Sep 20 12:10:26 2020

Wall Time:        1.49 seconds

                                                       Time (seconds)
Module                                       User      System        Wall        Calls

--------------------------------------------------------------------------------------

**************************************************************************************

Host: FACC02D75Y4MD6T.tld

Timers On : Sun Sep 20 12:11:22 2020
Timers Off: Sun Sep 20 12:11:23 2020

Wall Time:        1.11 seconds

                                                       Time (seconds)
Module                                       User      System        Wall        Calls

--------------------------------------------------------------------------------------

**************************************************************************************

Host: FACC02D75Y4MD6T.tld

Timers On : Sun Sep 20 12:12:25 2020
Timers Off: Sun Sep 20 12:12:28 2020

Wall Time:        3.24 seconds

                                                       Time (seconds)
Module                                       User      System        Wall        Calls

--------------------------------------------------------------------------------------

**************************************************************************************

Host: FACC02D75Y4MD6T.tld

Timers On : Sun Sep 20 14:38:47 2020
Timers Off: Sun Sep 20 14:38:51 2020

Wall Time:        3.57 seconds

                                                       Time (seconds)
Module                                       User      System        Wall        Calls

--------------------------------------------------------------------------------------

**************************************************************************************

Host: FACC02D75Y4MD6T.tld

Timers On : Sun Sep 20 14:43:02 2020
Timers Off: Sun Sep 20 14:43:06 2020

Wall Time:        3.94 seconds

                                                       Time (seconds)
Module                                       User      System        Wall        Calls

--------------------------------------------------------------------------------------

**************************************************************************************

Host: FACC02D75Y4MD6T.tld

Timers On : Sun Sep 20 14:46:00 2020
Timers Off: Sun Sep 20 14:46:04 2020

Wall Time:        3.42 seconds

                                                       Time (seconds)
Module                                       User      System        Wall        Calls

--------------------------------------------------------------------------------------

**************************************************************************************

Host: FACC02D75Y4MD6T.tld

Timers On : Sun Sep 20 17:24:56 2020
Timers Off: Sun Sep 20 17:24:58 2020

Wall Time:        1.51 seconds

                                                       Time (seconds)
Module                                       User      System        Wall        Calls

--------------------------------------------------------------------------------------

**************************************************************************************

Host: FACC02D75Y4MD6T.tld

Timers On : Sun Sep 20 17:39:11 2020
Timers Off: Sun Sep 20 17:39:15 2020

Wall Time:        3.87 seconds

                                                       Time (seconds)
Module                                       User      System        Wall        Calls

--------------------------------------------------------------------------------------

**************************************************************************************
