
    -----------------------------------------------------------------------
          Psi4: An Open-Source Ab Initio Electronic Structure Package
                               Psi4 1.3.2 release

                         Git: Rev {HEAD} ecbda83 


    R. M. Parrish, L. A. Burns, D. G. A. Smith, A. C. Simmonett,
    A. E. DePrince III, E. G. Hohenstein, U. Bozkaya, A. Yu. Sokolov,
    R. Di Remigio, R. M. Richard, J. F. Gonthier, A. M. James,
    H. R. McAlexander, A. Kumar, M. Saitow, X. Wang, B. P. Pritchard,
    P. Verma, H. F. Schaefer III, K. Patkowski, R. A. King, E. F. Valeev,
    F. A. Evangelista, J. M. Turney, T. D. Crawford, and C. D. Sherrill,
    J. Chem. Theory Comput. 13(7) pp 3185--3197 (2017).
    (doi: 10.1021/acs.jctc.7b00174)


                         Additional Contributions by
    P. Kraus, H. Kruse, M. H. Lechner, M. C. Schieber, R. A. Shaw,
    A. Alenaizan, R. Galvelis, Z. L. Glick, S. Lehtola, and J. P. Misiewicz

    -----------------------------------------------------------------------


    Psi4 started on: Sunday, 20 September 2020 12:21PM

    Process ID: 27126
    Host:       FACC02D75Y4MD6T.tld
    PSIDATADIR: /Users/blais.ch/anaconda3/envs/rmg_env/share/psi4
    Memory:     500.0 MiB
    Threads:    1
    
  ==> Input File <==

--------------------------------------------------------------------------
memory 1024 mb

molecule mol {
0 2
N 0.00000000 0.00000000 0.00000000
O -1.18925200 -0.18239900 -0.44355000
H 0.39497900 0.93995700 -0.02374500
H 0.37049900 -0.64801900 0.69490700

}


set {
  scf_type DIRECT
  basis 6-31G(d_p)
  reference uks
  geom_maxiter 50
  print 3
}

optimize('b3lyp')
scf_e, wfn=frequencies('b3lyp', return_wfn=True, dertype=1)
wfn.hessian().print_out()
--------------------------------------------------------------------------

  Memory set to 976.562 MiB by Python driver.
gradient() will perform analytic gradient computation.

*** tstart() called on FACC02D75Y4MD6T.tld
*** at Sun Sep 20 12:21:33 2020

   => Loading Basis Set <=

    Name: 6-31G(D_P)
    Role: ORBITAL
    Keyword: BASIS
    atoms 1   entry N          line   132 file /Users/blais.ch/anaconda3/envs/rmg_env/share/psi4/basis/6-31g_d_p_.gbs 
    atoms 2   entry O          line   149 file /Users/blais.ch/anaconda3/envs/rmg_env/share/psi4/basis/6-31g_d_p_.gbs 
    atoms 3-4 entry H          line    44 file /Users/blais.ch/anaconda3/envs/rmg_env/share/psi4/basis/6-31g_d_p_.gbs 


         ---------------------------------------------------------
                                   SCF
               by Justin Turney, Rob Parrish, Andy Simmonett
                          and Daniel G. A. Smith
                              UKS Reference
                        1 Threads,    976 MiB Core
         ---------------------------------------------------------

  ==> Geometry <==

    Molecular point group: c1
    Full point group: C1

    Geometry (in Angstrom), charge = 0, multiplicity = 2:

       Center              X                  Y                   Z               Mass       
    ------------   -----------------  -----------------  -----------------  -----------------
         N            0.570085659076     0.081941138680     0.200481131735    14.003074004430
         O           -0.619166340924    -0.100457861320    -0.243068868265    15.994914619570
         H            0.965064659076     1.021898138680     0.176736131735     1.007825032230
         H            0.940584659076    -0.566077861320     0.895388131735     1.007825032230

           N
              BASIS           6-31G(D_P)           be17c05ec1461ad3097843c20da1040adf86ba79
           O
              BASIS           6-31G(D_P)           ec2d227169b1af6c6a69bc8715bab79dbd7bb644
           H
              BASIS           6-31G(D_P)           902186d0f3205710946c2c15d2c68458d6f6cc2a
           H
              BASIS           6-31G(D_P)           902186d0f3205710946c2c15d2c68458d6f6cc2a

  Running in c1 symmetry.

  Rotational constants: A =     10.59407  B =      1.12684  C =      1.02594 [cm^-1]
  Rotational constants: A = 317602.10397  B =  33781.91448  C =  30757.05640 [MHz]
  Nuclear repulsion =   34.940045778057602

  Charge       = 0
  Multiplicity = 2
  Electrons    = 17
  Nalpha       = 9
  Nbeta        = 8

  ==> Algorithm <==

  SCF Algorithm Type is DIRECT.
  DIIS enabled.
  MOM disabled.
  Fractional occupation disabled.
  Guess Type is SAD.
  Energy threshold   = 1.00e-08
  Density threshold  = 1.00e-08
  Integral threshold = 0.00e+00

  ==> Primary Basis <==

  -AO BASIS SET INFORMATION:
    Name                   = 6-31G(D_P)
    Blend                  = 6-31G(D_P)
    Total number of shells = 18
    Number of primitives   = 40
    Number of AO           = 40
    Number of SO           = 40
    Maximum AM             = 2
    Spherical Harmonics    = FALSE

  -Contraction Scheme:
    Atom   Type   All Primitives // Shells:
   ------ ------ --------------------------
       1     N     10s 4p 1d // 3s 2p 1d 
       2     O     10s 4p 1d // 3s 2p 1d 
       3     H     4s 1p // 2s 1p 
       4     H     4s 1p // 2s 1p 

  ==> AO Basis Functions <==

    [ 6-31G(D_P) ]
    cartesian
    ****
    N   1
    S   6 1.00
                      4173.51100000           0.00183480
                       627.45790000           0.01399500
                       142.90210000           0.06858700
                        40.23433000           0.23224100
                        12.82021000           0.46907000
                         4.39043700           0.36045500
    S   3 1.00
                        11.62635800          -0.11496100
                         2.71628000          -0.16911800
                         0.77221800           1.14585200
    P   3 1.00
                        11.62635800           0.06758000
                         2.71628000           0.32390700
                         0.77221800           0.74089500
    S   1 1.00
                         0.21203130           1.00000000
    P   1 1.00
                         0.21203130           1.00000000
    D   1 1.00
                         0.80000000           1.00000000
    ****
    O   2
    S   6 1.00
                      5484.67170000           0.00183110
                       825.23495000           0.01395010
                       188.04696000           0.06844510
                        52.96450000           0.23271430
                        16.89757000           0.47019300
                         5.79963530           0.35852090
    S   3 1.00
                        15.53961600          -0.11077750
                         3.59993360          -0.14802630
                         1.01376180           1.13076700
    P   3 1.00
                        15.53961600           0.07087430
                         3.59993360           0.33975280
                         1.01376180           0.72715860
    S   1 1.00
                         0.27000580           1.00000000
    P   1 1.00
                         0.27000580           1.00000000
    D   1 1.00
                         0.80000000           1.00000000
    ****
    H   3
    S   3 1.00
                        18.73113700           0.03349460
                         2.82539370           0.23472695
                         0.64012170           0.81375733
    S   1 1.00
                         0.16127780           1.00000000
    P   1 1.00
                         1.10000000           1.00000000
    ****
    H   4
    S   3 1.00
                        18.73113700           0.03349460
                         2.82539370           0.23472695
                         0.64012170           0.81375733
    S   1 1.00
                         0.16127780           1.00000000
    P   1 1.00
                         1.10000000           1.00000000
    ****

  ==> DFT Potential <==

   => Composite Functional: B3LYP <= 

    B3LYP Hyb-GGA Exchange-Correlation Functional

    P. J. Stephens, F. J. Devlin, C. F. Chabalowski, and M. J. Frisch, J. Phys. Chem. 98, 11623 (1994)

    Deriv               =              1
    GGA                 =           TRUE
    Meta                =          FALSE

    Exchange Hybrid     =           TRUE
    MP2 Hybrid          =          FALSE

   => Exchange Functionals <=

    0.0800   Slater exchange
    0.7200         Becke 88

   => Exact (HF) Exchange <=

    0.2000               HF 

   => Correlation Functionals <=

    0.1900   Vosko, Wilk & Nusair (VWN5_RPA)
    0.8100   Lee, Yang & Parr

   => XC_HYB_GGA_XC_B3LYP Functional <=

    B3LYP
    P. J. Stephens, F. J. Devlin, C. F. Chabalowski, and M. J. Frisch, J. Phys. Chem. 98, 11623 (1994)
    GGA   =           TRUE
    Meta  =          FALSE
    LRC   =          FALSE
    Alpha =   1.000000E+00
    Omega =   0.000000E+00

    > Parameters <


   => Molecular Quadrature <=

    Radial Scheme          =       TREUTLER
    Pruning Scheme         =           FLAT
    Nuclear Scheme         =       TREUTLER

    BS radius alpha        =              1
    Pruning alpha          =              1
    Radial Points          =             75
    Spherical Points       =            302
    Total Points           =          87060
    Total Blocks           =            722
    Max Points             =            255
    Max Functions          =             40

   => Loading Basis Set <=

    Name: (6-31G(D_P) AUX)
    Role: JKFIT
    Keyword: DF_BASIS_SCF
    atoms 1   entry N          line   171 file /Users/blais.ch/anaconda3/envs/rmg_env/share/psi4/basis/cc-pvdz-jkfit.gbs 
    atoms 2   entry O          line   221 file /Users/blais.ch/anaconda3/envs/rmg_env/share/psi4/basis/cc-pvdz-jkfit.gbs 
    atoms 3-4 entry H          line    51 file /Users/blais.ch/anaconda3/envs/rmg_env/share/psi4/basis/cc-pvdz-jkfit.gbs 

  Starting with a DF guess...

  ==> Pre-Iterations <==

   -------------------------------------------------------
    Irrep   Nso     Nmo     Nalpha   Nbeta   Ndocc  Nsocc
   -------------------------------------------------------
     A         40      40       0       0       0       0
   -------------------------------------------------------
    Total      40      40       9       8       8       1
   -------------------------------------------------------

  ==> Integral Setup <==

  DFHelper Memory: AOs need 0.003 GiB; user supplied 0.621 GiB. Using in-core AOs.

  ==> MemDFJK: Density-Fitted J/K Matrices <==

    J tasked:                   Yes
    K tasked:                   Yes
    wK tasked:                   No
    OpenMP threads:               1
    Memory [MiB]:               636
    Algorithm:                 Core
    Schwarz Cutoff:           1E-12
    Mask sparsity (%):       0.0000
    Fitting Condition:        1E-10

   => Auxiliary Basis Set <=

  -AO BASIS SET INFORMATION:
    Name                   = (6-31G(D_P) AUX)
    Blend                  = CC-PVDZ-JKFIT
    Total number of shells = 66
    Number of primitives   = 66
    Number of AO           = 212
    Number of SO           = 212
    Maximum AM             = 3
    Spherical Harmonics    = FALSE

  -Contraction Scheme:
    Atom   Type   All Primitives // Shells:
   ------ ------ --------------------------
       1     N     10s 7p 5d 2f // 10s 7p 5d 2f 
       2     O     10s 7p 5d 2f // 10s 7p 5d 2f 
       3     H     4s 3p 2d // 4s 3p 2d 
       4     H     4s 3p 2d // 4s 3p 2d 

  ==> AO Basis Functions <==

    [ (6-31G(D_P) AUX) ]
    cartesian
    ****
    N   1
    S   1 1.00
                      1102.86224530           1.00000000
    S   1 1.00
                       370.98041153           1.00000000
    S   1 1.00
                       136.73555938           1.00000000
    S   1 1.00
                        50.75587192           1.00000000
    S   1 1.00
                        20.53565610           1.00000000
    S   1 1.00
                         7.83187372           1.00000000
    S   1 1.00
                         3.47840639           1.00000000
    S   1 1.00
                         1.45528566           1.00000000
    S   1 1.00
                         0.63068989           1.00000000
    S   1 1.00
                         0.27276596           1.00000000
    P   1 1.00
                        93.54095407           1.00000000
    P   1 1.00
                        29.52401953           1.00000000
    P   1 1.00
                        10.91750299           1.00000000
    P   1 1.00
                         4.34492890           1.00000000
    P   1 1.00
                         1.82169126           1.00000000
    P   1 1.00
                         0.75792424           1.00000000
    P   1 1.00
                         0.28241469           1.00000000
    D   1 1.00
                        16.41937893           1.00000000
    D   1 1.00
                         5.01040494           1.00000000
    D   1 1.00
                         1.97939719           1.00000000
    D   1 1.00
                         0.78495772           1.00000000
    D   1 1.00
                         0.28954066           1.00000000
    F   1 1.00
                         1.79354240           1.00000000
    F   1 1.00
                         0.60854240           1.00000000
    ****
    O   2
    S   1 1.00
                      1517.86675060           1.00000000
    S   1 1.00
                       489.67952008           1.00000000
    S   1 1.00
                       176.72118665           1.00000000
    S   1 1.00
                        63.79223314           1.00000000
    S   1 1.00
                        25.36649913           1.00000000
    S   1 1.00
                         9.91354912           1.00000000
    S   1 1.00
                         4.46453066           1.00000000
    S   1 1.00
                         1.80177437           1.00000000
    S   1 1.00
                         0.80789711           1.00000000
    S   1 1.00
                         0.33864327           1.00000000
    P   1 1.00
                       120.16030921           1.00000000
    P   1 1.00
                        34.40962247           1.00000000
    P   1 1.00
                        12.58114861           1.00000000
    P   1 1.00
                         5.06638242           1.00000000
    P   1 1.00
                         2.03469271           1.00000000
    P   1 1.00
                         0.86092967           1.00000000
    P   1 1.00
                         0.36681357           1.00000000
    D   1 1.00
                        19.04306281           1.00000000
    D   1 1.00
                         5.80603811           1.00000000
    D   1 1.00
                         2.18918416           1.00000000
    D   1 1.00
                         0.87794614           1.00000000
    D   1 1.00
                         0.35623647           1.00000000
    F   1 1.00
                         2.49391479           1.00000000
    F   1 1.00
                         0.82491479           1.00000000
    ****
    H   3
    S   1 1.00
                         9.53024933           1.00000000
    S   1 1.00
                         1.91745062           1.00000000
    S   1 1.00
                         0.68424049           1.00000000
    S   1 1.00
                         0.28413256           1.00000000
    P   1 1.00
                         2.91332320           1.00000000
    P   1 1.00
                         1.26212054           1.00000000
    P   1 1.00
                         0.50199776           1.00000000
    D   1 1.00
                         2.31353291           1.00000000
    D   1 1.00
                         0.71290724           1.00000000
    ****
    H   4
    S   1 1.00
                         9.53024933           1.00000000
    S   1 1.00
                         1.91745062           1.00000000
    S   1 1.00
                         0.68424049           1.00000000
    S   1 1.00
                         0.28413256           1.00000000
    P   1 1.00
                         2.91332320           1.00000000
    P   1 1.00
                         1.26212054           1.00000000
    P   1 1.00
                         0.50199776           1.00000000
    D   1 1.00
                         2.31353291           1.00000000
    D   1 1.00
                         0.71290724           1.00000000
    ****

  Cached 100.0% of DFT collocation blocks in 0.094 [GiB].

  Minimum eigenvalue in the overlap matrix is 8.6510121088E-03.
  Using Symmetric Orthogonalization.

  SCF Guess: Superposition of Atomic Densities via on-the-fly atomic UHF.

DIIS coefficients:  1.000 
DIIS coefficients:  0.279  0.721 
DIIS coefficients:  -0.018  0.036  0.982 
DIIS coefficients:  -0.000  -0.002  -0.067  1.070 
DIIS coefficients:  -0.000  0.000  0.009  -0.178  1.168 
DIIS coefficients:  0.000  -0.000  -0.000  0.006  -0.045  1.039 
DIIS coefficients:  1.000 
DIIS coefficients:  0.329  0.671 
DIIS coefficients:  -0.027  -0.001  1.028 
DIIS coefficients:  -0.002  -0.000  -0.045  1.047 
DIIS coefficients:  0.000  0.000  0.005  -0.173  1.168 
DIIS coefficients:  0.000  -0.000  -0.001  0.017  -0.113  1.097 
DIIS coefficients:  1.000 
DIIS coefficients:  -0.068  1.068 
DIIS coefficients:  -0.000  -0.002  1.002 
DIIS coefficients:  -0.000  -0.000  -0.001  1.001 
  ==> Iterations <==

                           Total Energy        Delta E     RMS |[F,P]|

   @DF-UKS iter SAD:  -130.72343514670041   -1.30723e+02   0.00000e+00 
DIIS coefficients:  1.000 
    Occupation by irrep:
              A 
    DOCC [     8 ]
    SOCC [     1 ]

   @DF-UKS iter   1:  -130.99092416047424   -2.67489e-01   1.16534e-02 DIIS
DIIS coefficients:  0.561  0.439 
    Occupation by irrep:
              A 
    DOCC [     8 ]
    SOCC [     1 ]

   @DF-UKS iter   2:  -130.94716320497557    4.37610e-02   1.47662e-02 DIIS
DIIS coefficients:  0.283  0.241  0.476 
    Occupation by irrep:
              A 
    DOCC [     8 ]
    SOCC [     1 ]

   @DF-UKS iter   3:  -131.08377344677828   -1.36610e-01   2.91197e-03 DIIS
DIIS coefficients:  0.016  0.012  0.275  0.697 
    Occupation by irrep:
              A 
    DOCC [     8 ]
    SOCC [     1 ]

   @DF-UKS iter   4:  -131.08852394692497   -4.75050e-03   1.12248e-03 DIIS
DIIS coefficients:  -0.017  -0.019  0.040  0.085  0.911 
    Occupation by irrep:
              A 
    DOCC [     8 ]
    SOCC [     1 ]

   @DF-UKS iter   5:  -131.08927200766075   -7.48061e-04   1.74549e-04 DIIS
DIIS coefficients:  0.003  0.002  -0.011  -0.084  -0.232  1.322 
    Occupation by irrep:
              A 
    DOCC [     8 ]
    SOCC [     1 ]

   @DF-UKS iter   6:  -131.08929882598389   -2.68183e-05   6.53753e-05 DIIS
DIIS coefficients:  0.000  0.000  0.001  0.002  -0.012  -0.087  1.096 
    Occupation by irrep:
              A 
    DOCC [     8 ]
    SOCC [     1 ]

   @DF-UKS iter   7:  -131.08930309072593   -4.26474e-06   6.62655e-06 DIIS
DIIS coefficients:  -0.000  -0.000  0.001  0.005  0.011  -0.078  0.108  0.953 
    Occupation by irrep:
              A 
    DOCC [     8 ]
    SOCC [     1 ]

   @DF-UKS iter   8:  -131.08930314667242   -5.59465e-08   1.45096e-06 DIIS
DIIS coefficients:  -0.000  -0.000  -0.000  0.000  0.002  0.001  -0.092  0.087  1.002 
    Occupation by irrep:
              A 
    DOCC [     8 ]
    SOCC [     1 ]

   @DF-UKS iter   9:  -131.08930314956771   -2.89529e-09   4.48455e-07 DIIS
DIIS coefficients:  -0.000  0.000  -0.000  -0.000  -0.000  0.004  -0.003  -0.057  -0.030  1.088 
    Occupation by irrep:
              A 
    DOCC [     8 ]
    SOCC [     1 ]

   @DF-UKS iter  10:  -131.08930314987001   -3.02293e-10   8.38016e-08 DIIS
DIIS coefficients:  -0.000  1.066  0.000  0.000  0.000  -0.000  0.003  -0.000  -0.030  -0.038 
    Occupation by irrep:
              A 
    DOCC [     8 ]
    SOCC [     1 ]

   @DF-UKS iter  11:  -131.08930314988282   -1.28182e-11   1.65617e-08 DIIS
DIIS coefficients:  0.933  0.103  0.000  0.000  -0.000  -0.000  0.001  0.001  -0.005  -0.034 
    Occupation by irrep:
              A 
    DOCC [     8 ]
    SOCC [     1 ]

   @DF-UKS iter  12:  -131.08930314988322   -3.97904e-13   5.59082e-09 DIIS

  DF guess converged.

  ==> DirectJK: Integral-Direct J/K Matrices <==

    J tasked:                  Yes
    K tasked:                  Yes
    wK tasked:                  No
    Integrals threads:           1
    Schwarz Cutoff:          1E-12

DIIS coefficients:  1.000 
    Occupation by irrep:
              A 
    DOCC [     8 ]
    SOCC [     1 ]

   @UKS iter  13:  -131.08932848435919   -1.31089e+02   5.38743e-06 DIIS
DIIS coefficients:  0.061  0.939 
    Occupation by irrep:
              A 
    DOCC [     8 ]
    SOCC [     1 ]

   @UKS iter  14:  -131.08932850647918   -2.21200e-08   1.15312e-06 DIIS
DIIS coefficients:  -0.009  0.508  0.501 
    Occupation by irrep:
              A 
    DOCC [     8 ]
    SOCC [     1 ]

   @UKS iter  15:  -131.08932850658033   -1.01153e-10   1.18243e-06 DIIS
DIIS coefficients:  -0.011  0.206  0.287  0.517 
    Occupation by irrep:
              A 
    DOCC [     8 ]
    SOCC [     1 ]

   @UKS iter  16:  -131.08932850733484   -7.54511e-10   4.07516e-07 DIIS
DIIS coefficients:  -0.005  0.062  0.095  0.308  0.540 
    Occupation by irrep:
              A 
    DOCC [     8 ]
    SOCC [     1 ]

   @UKS iter  17:  -131.08932850743176   -9.69180e-11   1.36474e-07 DIIS
DIIS coefficients:  0.002  -0.041  -0.071  -0.074  -0.171  1.354 
    Occupation by irrep:
              A 
    DOCC [     8 ]
    SOCC [     1 ]

   @UKS iter  18:  -131.08932850744276   -1.09992e-11   3.30704e-08 DIIS
DIIS coefficients:  -0.000  0.003  0.006  0.002  -0.004  -0.173  1.167 
    Occupation by irrep:
              A 
    DOCC [     8 ]
    SOCC [     1 ]

   @UKS iter  19:  -131.08932850744404   -1.27898e-12   3.24118e-09 DIIS
  Energy and wave function converged.


  ==> Post-Iterations <==

   @Spin Contamination Metric:   2.993608835E-03
   @S^2 Expected:                7.500000000E-01
   @S^2 Observed:                7.529936088E-01
   @S   Expected:                5.000000000E-01
   @S   Observed:                5.000000000E-01

    Orbital Energies [Eh]
    ---------------------

    Alpha Occupied:                                                       

       1A    -19.164000     2A    -14.425518     3A     -1.090678  
       4A     -0.783651     5A     -0.560887     6A     -0.472774  
       7A     -0.435030     8A     -0.269700     9A     -0.217786  

    Alpha Virtual:                                                        

      10A      0.059045    11A      0.134864    12A      0.222895  
      13A      0.596062    14A      0.640351    15A      0.702889  
      16A      0.749712    17A      0.831593    18A      0.864586  
      19A      0.933686    20A      0.966911    21A      1.028247  
      22A      1.313509    23A      1.371182    24A      1.433456  
      25A      1.736989    26A      1.800473    27A      1.947088  
      28A      2.045208    29A      2.048593    30A      2.095049  
      31A      2.354917    32A      2.530795    33A      2.540292  
      34A      2.761957    35A      2.804351    36A      2.920934  
      37A      3.287437    38A      3.417028    39A      3.528675  
      40A      3.891496  

    Beta Occupied:                                                        

       1A    -19.146974     2A    -14.416663     3A     -1.061550  
       4A     -0.752788     5A     -0.553661     6A     -0.450603  
       7A     -0.357840     8A     -0.253424  

    Beta Virtual:                                                         

       9A     -0.052524    10A      0.065415    11A      0.138395  
      12A      0.239392    13A      0.605190    14A      0.671530  
      15A      0.711712    16A      0.752901    17A      0.836836  
      18A      0.877018    19A      0.974638    20A      0.996227  
      21A      1.036673    22A      1.329071    23A      1.388813  
      24A      1.459605    25A      1.772301    26A      1.834190  
      27A      1.951780    28A      2.050363    29A      2.065520  
      30A      2.112002    31A      2.374418    32A      2.551523  
      33A      2.556442    34A      2.778131    35A      2.810330  
      36A      2.926471    37A      3.294904    38A      3.421827  
      39A      3.554366    40A      3.906357  

    Final Occupation by Irrep:
              A 
    DOCC [     8 ]
    SOCC [     1 ]

  @UKS Final Energy:  -131.08932850744404

   => Energetics <=

    Nuclear Repulsion Energy =             34.9400457780576019
    One-Electron Energy =                -248.2374501334628292
    Two-Electron Energy =                  95.3046038742304376
    DFT Exchange-Correlation Energy =     -13.0965280262692367
    Empirical Dispersion Energy =           0.0000000000000000
    VV10 Nonlocal Energy =                  0.0000000000000000
    Total Energy =                       -131.0893285074440371

  UHF NO Occupations:
  HONO-2 :    7  A 1.9997195
  HONO-1 :    8  A 1.9991010
  HONO-0 :    9  A 1.0000000
  LUNO+0 :   10  A 0.0008990
  LUNO+1 :   11  A 0.0002805
  LUNO+2 :   12  A 0.0001447
  LUNO+3 :   13  A 0.0001310


Computation Completed


Properties will be evaluated at   0.000000,   0.000000,   0.000000 [a0]

Properties computed using the SCF density matrix

  Nuclear Dipole Moment: [e a0]
     X:     1.7819      Y:     0.4266      Z:     1.0033

  Electronic Dipole Moment: [e a0]
     X:    -0.8022      Y:    -0.1687      Z:    -0.4000

  Dipole Moment: [e a0]
     X:     0.9796      Y:     0.2579      Z:     0.6033     Total:     1.1791

  Dipole Moment: [D]
     X:     2.4900      Y:     0.6556      Z:     1.5334     Total:     2.9969


*** tstop() called on FACC02D75Y4MD6T.tld at Sun Sep 20 12:21:36 2020
Module time:
	user time   =       3.10 seconds =       0.05 minutes
	system time =       0.10 seconds =       0.00 minutes
	total time  =          3 seconds =       0.05 minutes
Total time:
	user time   =       3.10 seconds =       0.05 minutes
	system time =       0.10 seconds =       0.00 minutes
	total time  =          3 seconds =       0.05 minutes

*** tstart() called on FACC02D75Y4MD6T.tld
*** at Sun Sep 20 12:21:36 2020


         ------------------------------------------------------------
                                   SCF GRAD                          
                          Rob Parrish, Justin Turney,                
                       Andy Simmonett, and Alex Sokolov              
         ------------------------------------------------------------

  ==> Geometry <==

    Molecular point group: c1
    Full point group: C1

    Geometry (in Angstrom), charge = 0, multiplicity = 2:

       Center              X                  Y                   Z               Mass       
    ------------   -----------------  -----------------  -----------------  -----------------
         N            0.570085659076     0.081941138680     0.200481131735    14.003074004430
         O           -0.619166340924    -0.100457861320    -0.243068868265    15.994914619570
         H            0.965064659076     1.021898138680     0.176736131735     1.007825032230
         H            0.940584659076    -0.566077861320     0.895388131735     1.007825032230

           N
              BASIS           6-31G(D_P)           be17c05ec1461ad3097843c20da1040adf86ba79
              DF_BASIS_SCF    (6-31G(D_P) AUX)     8eb73939244d0ff71e080d82475ea73ba87737d3
           O
              BASIS           6-31G(D_P)           ec2d227169b1af6c6a69bc8715bab79dbd7bb644
              DF_BASIS_SCF    (6-31G(D_P) AUX)     b57462463db1b385e39e4428a46364991bcd7673
           H
              BASIS           6-31G(D_P)           902186d0f3205710946c2c15d2c68458d6f6cc2a
              DF_BASIS_SCF    (6-31G(D_P) AUX)     1164366b470d7a66fddaf681ef9d1c28421b3e4a
           H
              BASIS           6-31G(D_P)           902186d0f3205710946c2c15d2c68458d6f6cc2a
              DF_BASIS_SCF    (6-31G(D_P) AUX)     1164366b470d7a66fddaf681ef9d1c28421b3e4a

  Nuclear repulsion =   34.940045778057602

  ==> Basis Set <==

  -AO BASIS SET INFORMATION:
    Name                   = 6-31G(D_P)
    Blend                  = 6-31G(D_P)
    Total number of shells = 18
    Number of primitives   = 40
    Number of AO           = 40
    Number of SO           = 40
    Maximum AM             = 2
    Spherical Harmonics    = FALSE

  -Contraction Scheme:
    Atom   Type   All Primitives // Shells:
   ------ ------ --------------------------
       1     N     10s 4p 1d // 3s 2p 1d 
       2     O     10s 4p 1d // 3s 2p 1d 
       3     H     4s 1p // 2s 1p 
       4     H     4s 1p // 2s 1p 

  ==> AO Basis Functions <==

    [ 6-31G(D_P) ]
    cartesian
    ****
    N   1
    S   6 1.00
                      4173.51100000           0.00183480
                       627.45790000           0.01399500
                       142.90210000           0.06858700
                        40.23433000           0.23224100
                        12.82021000           0.46907000
                         4.39043700           0.36045500
    S   3 1.00
                        11.62635800          -0.11496100
                         2.71628000          -0.16911800
                         0.77221800           1.14585200
    P   3 1.00
                        11.62635800           0.06758000
                         2.71628000           0.32390700
                         0.77221800           0.74089500
    S   1 1.00
                         0.21203130           1.00000000
    P   1 1.00
                         0.21203130           1.00000000
    D   1 1.00
                         0.80000000           1.00000000
    ****
    O   2
    S   6 1.00
                      5484.67170000           0.00183110
                       825.23495000           0.01395010
                       188.04696000           0.06844510
                        52.96450000           0.23271430
                        16.89757000           0.47019300
                         5.79963530           0.35852090
    S   3 1.00
                        15.53961600          -0.11077750
                         3.59993360          -0.14802630
                         1.01376180           1.13076700
    P   3 1.00
                        15.53961600           0.07087430
                         3.59993360           0.33975280
                         1.01376180           0.72715860
    S   1 1.00
                         0.27000580           1.00000000
    P   1 1.00
                         0.27000580           1.00000000
    D   1 1.00
                         0.80000000           1.00000000
    ****
    H   3
    S   3 1.00
                        18.73113700           0.03349460
                         2.82539370           0.23472695
                         0.64012170           0.81375733
    S   1 1.00
                         0.16127780           1.00000000
    P   1 1.00
                         1.10000000           1.00000000
    ****
    H   4
    S   3 1.00
                        18.73113700           0.03349460
                         2.82539370           0.23472695
                         0.64012170           0.81375733
    S   1 1.00
                         0.16127780           1.00000000
    P   1 1.00
                         1.10000000           1.00000000
    ****

  ==> DirectJKGrad: Integral-Direct SCF Gradients <==

    Gradient:                    1
    J tasked:                  Yes
    K tasked:                  Yes
    wK tasked:                  No
    Integrals threads:           1
    Schwarz Cutoff:          0E+00

  ==> DFT Potential <==

   => Composite Functional: B3LYP <= 

    B3LYP Hyb-GGA Exchange-Correlation Functional

    P. J. Stephens, F. J. Devlin, C. F. Chabalowski, and M. J. Frisch, J. Phys. Chem. 98, 11623 (1994)

    Deriv               =              1
    GGA                 =           TRUE
    Meta                =          FALSE

    Exchange Hybrid     =           TRUE
    MP2 Hybrid          =          FALSE

   => Exchange Functionals <=

    0.0800   Slater exchange
    0.7200         Becke 88

   => Exact (HF) Exchange <=

    0.2000               HF 

   => Correlation Functionals <=

    0.1900   Vosko, Wilk & Nusair (VWN5_RPA)
    0.8100   Lee, Yang & Parr

   => XC_HYB_GGA_XC_B3LYP Functional <=

    B3LYP
    P. J. Stephens, F. J. Devlin, C. F. Chabalowski, and M. J. Frisch, J. Phys. Chem. 98, 11623 (1994)
    GGA   =           TRUE
    Meta  =          FALSE
    LRC   =          FALSE
    Alpha =   1.000000E+00
    Omega =   0.000000E+00

    > Parameters <


   => Molecular Quadrature <=

    Radial Scheme          =       TREUTLER
    Pruning Scheme         =           FLAT
    Nuclear Scheme         =       TREUTLER

    BS radius alpha        =              1
    Pruning alpha          =              1
    Radial Points          =             75
    Spherical Points       =            302
    Total Points           =          87060
    Total Blocks           =            722
    Max Points             =            255
    Max Functions          =             40


  -Nuclear Gradient:
     Atom            X                  Y                   Z
    ------   -----------------  -----------------  -----------------
       1       -7.430109098137    -0.817039538456    -2.058483775551
       2        9.743319081488     1.544247912574     3.744155936515
       3       -1.184018134599    -2.141753444608    -0.038121006987
       4       -1.129191848752     1.414545070491    -1.647551153977


  -Core Hamiltonian Gradient:
     Atom            X                  Y                   Z
    ------   -----------------  -----------------  -----------------
       1       15.060296356738     1.375972216232     3.553445764054
       2      -20.392395537205    -3.140124521751    -7.633243901377
       3        2.736392902604     5.444897607588    -0.025041311547
       4        2.595706277863    -3.680745302069     4.104839448871


  -Overlap Gradient:
     Atom            X                  Y                   Z
    ------   -----------------  -----------------  -----------------
       1       -0.163937398562     0.019130553317     0.036687314163
       2        0.328655138253     0.046442123939     0.113816387024
       3       -0.084996212808    -0.203857659689     0.002167799659
       4       -0.079721526883     0.138284982433    -0.152671500846


  -Coulomb Gradient:
     Atom            X                  Y                   Z
    ------   -----------------  -----------------  -----------------
       1       -7.621484477310    -0.544062284395    -1.461809283877
       2       10.714016477103     1.605275707653     3.912068878329
       3       -1.590472639208    -3.398066401822     0.072561446364
       4       -1.502059360585     2.336852978564    -2.522821040816


  -Exchange Gradient:
     Atom            X                  Y                   Z
    ------   -----------------  -----------------  -----------------
       1        0.042424281647    -0.008236660613    -0.016755014408
       2       -0.102696110509    -0.014521279339    -0.035585237491
       3        0.031129934887     0.075856108183    -0.003009505344
       4        0.029141893975    -0.053098168231     0.055349757243


  -XC Gradient:
     Atom            X                  Y                   Z
    ------   -----------------  -----------------  -----------------
       1        0.112948111357    -0.025567464348    -0.052647637614
       2       -0.290783894790    -0.041332283561    -0.101235283738
       3        0.091840611494     0.222958370948    -0.008821706664
       4        0.085997430236    -0.156058375730     0.162705251300


  -Total Gradient:
     Atom            X                  Y                   Z
    ------   -----------------  -----------------  -----------------
       1        0.000137775732     0.000196821737     0.000437366767
       2        0.000115154340    -0.000012340485    -0.000023220738
       3       -0.000123537630     0.000034580600    -0.000264284520
       4       -0.000127134145    -0.000218814542    -0.000149238226


*** tstop() called on FACC02D75Y4MD6T.tld at Sun Sep 20 12:21:37 2020
Module time:
	user time   =       0.48 seconds =       0.01 minutes
	system time =       0.01 seconds =       0.00 minutes
	total time  =          1 seconds =       0.02 minutes
Total time:
	user time   =       3.58 seconds =       0.06 minutes
	system time =       0.11 seconds =       0.00 minutes
	total time  =          4 seconds =       0.07 minutes

			-----------------------------------------
			 OPTKING 2.0: for geometry optimizations 
			  - R.A. King,  Bethel University        
			-----------------------------------------
dynamic level          =                  0
conv_max_force         =           3.00e-04
conv_rms_force         =           0.00e+00
conv_max_DE            =           1.00e-06
conv_max_disp          =           1.20e-03
conv_rms_disp          =           0.00e+00
SD Hessian             =           1.00e+00
scale_connectivity     =           1.30e+00
interfragment_scale_connectivity =           1.80e+00
fragment_mode          =             single
interfragment_mode        =              fixed
intcos_generate_exit   =              false
print_params           =              false
print_lvl              = 3
ensure_bt_convergence =             false
rfo_follow_root        =              false
rfo_root               =                  0
rfo_normalization_max  =           1.00e+02
rsrfo_alpha_max        =          1.000e+08
step_type              =                RFO
opt. coordinates       = Redundant Internals
linesearch_static_N    =                  8
linesearch_static_min  =          1.000e-03
linesearch_static_max  =          1.000e-01
consecutive_backsteps  =                  0
intrafragment_H        =           Schlegel
interfragment_H        =            Default
H_update               =               BFGS
H_update_use_last      =                  2
freeze_intrafragment   =              false
intrafragment_step_limit=          5.00e-01
interfragment_step_limit=          5.00e-01
add_auxiliary_bonds   =               true
H_guess_every         =              false
auxiliary_bond_factor =          2.50e+00
H_update_limit         =               true
H_update_limit_scale   =           5.00e-01
H_update_limit_max     =           1.00e+00
H_update_den_tol       =           1.00e-07
interfragment_distance_inverse=       false
write_final_step_geometry=            false
maximum_H_bond_distance=           4.30e+00
read_cartesian_H       =              false
fb_fragments          =              false
fb_fragments_only     =              false
frozen_distance: 
frozen_bend: 
frozen_dihedral: 
frozen_cartesian: 
fixed_distance: 
fixed_bend: 
fixed_dihedral: 
print_trajectory_xyz_file =              false

	Internal coordinates to be generated automatically.
	Detected frag 1 with atoms:  1 2 3 4
	---Fragment 1 Bond Connectivity---
	 1 : 2 3 4
	 2 : 1
	 3 : 1
	 4 : 1

	---Fragment 1 Geometry and Gradient---
	 N           1.0773057637        0.1548463105        0.3788544323
	 O          -1.1700548104       -0.1898378450       -0.4593335906
	 H           1.8237078990        1.9311076102        0.3339828855
	 H           1.7774474035       -1.0697321236        1.6920383450
	             0.0001377757        0.0001968217        0.0004373668
	             0.0001151543       -0.0000123405       -0.0000232207
	            -0.0001235376        0.0000345806       -0.0002642845
	            -0.0001271341       -0.0002188145       -0.0001492382

	Previous optimization step data not found.  Starting new optimization.

	---Fragment 1 Intrafragment Coordinates---
	 - Coordinate -           - BOHR/RAD -       - ANG/DEG -
	 R(1,2)           =         2.423220	       1.282313
	 R(1,3)           =         1.927235	       1.019849
	 R(1,4)           =         1.927237	       1.019850
	 B(2,1,3)         =         2.073996	     118.831204
	 B(2,1,4)         =         2.073995	     118.831165
	 B(3,1,4)         =         2.049689	     117.438528

	Current energy   :      -131.0893285074

B matrix
  0.927427  0.142242  0.345898 -0.927427 -0.142242 -0.345898  0.000000  0.000000
  0.000000  0.000000  0.000000  0.000000
 -0.387292 -0.921663  0.023283  0.000000  0.000000  0.000000  0.387292  0.921663
 -0.023283  0.000000  0.000000  0.000000
 -0.363288  0.635406 -0.681382  0.000000  0.000000  0.000000  0.000000  0.000000
  0.000000  0.363288 -0.635406  0.681382
 -0.466929  0.580851 -0.301067  0.028237 -0.401851  0.089543  0.438692 -0.178999
  0.211525  0.000000  0.000000  0.000000
 -0.485092 -0.597366  0.232144  0.039544  0.331630 -0.242400  0.000000  0.000000
  0.000000  0.445548  0.265736  0.010256
  0.641033  0.244478  0.562050  0.000000  0.000000  0.000000 -0.316733  0.123189
 -0.392096 -0.324300 -0.367667 -0.169954
Internal forces in au
   0.000096191467534   0.000010238106217   0.000009256289159  -0.000355579495121
  -0.000355451426418  -0.000869536554946
	Generating empirical Hessian (Schlegel '84) for each fragment.
diagonal Hessian values for simple coordinates.
  0.723546  0.443622  0.443620  0.160000  0.160000  0.160000

Initial Hessian guess
  0.723546  0.000000  0.000000  0.000000  0.000000  0.000000
  0.000000  0.443622  0.000000  0.000000  0.000000  0.000000
  0.000000  0.000000  0.443620  0.000000  0.000000  0.000000
  0.000000  0.000000  0.000000  0.160000  0.000000  0.000000
  0.000000  0.000000  0.000000  0.000000  0.160000  0.000000
  0.000000  0.000000  0.000000  0.000000  0.000000  0.160000
	Projection matrix for redundancies.
  1.000000  0.000000  0.000000  0.000000  0.000000  0.000000
  0.000000  1.000000  0.000000  0.000000  0.000000  0.000000
  0.000000  0.000000  1.000000  0.000000  0.000000  0.000000
  0.000000  0.000000  0.000000  1.000000  0.000000  0.000000
  0.000000  0.000000  0.000000  0.000000  1.000000  0.000000
 -0.000000  0.000000  0.000000  0.000000  0.000000  1.000000
Constraint matrix
  0.000000  0.000000  0.000000  0.000000  0.000000  0.000000
  0.000000  0.000000  0.000000  0.000000  0.000000  0.000000
  0.000000  0.000000  0.000000  0.000000  0.000000  0.000000
  0.000000  0.000000  0.000000  0.000000  0.000000  0.000000
  0.000000  0.000000  0.000000  0.000000  0.000000  0.000000
  0.000000  0.000000  0.000000  0.000000  0.000000  0.000000
	Internal forces in au, after projection of redundancies and constraints.
  0.000096  0.000010  0.000009 -0.000356 -0.000355 -0.000870
Projected (PHP) Hessian matrix
  0.723546  0.000000  0.000000  0.000000  0.000000  0.000000
  0.000000  0.443622  0.000000  0.000000  0.000000  0.000000
  0.000000  0.000000  0.443620  0.000000  0.000000  0.000000
  0.000000  0.000000  0.000000  0.160000  0.000000  0.000000
  0.000000  0.000000  0.000000  0.000000  0.160000  0.000000
 -0.000000  0.000000  0.000000  0.000000  0.000000  0.160000
	Taking RFO optimization step.
Eigenvalues of scaled RFO matrix.
 -0.000006  0.160000  0.160000  0.160006  0.443620  0.443622
  0.723546
First eigenvector (unnormalized) of scaled RFO matrix.
  0.000133  0.000023  0.000021 -0.002222 -0.002221 -0.005434  0.999980
	Going to follow RFO solution 1.
	Using RFO vector 1.
	rfo_root is 1

Scaled RFO eigenvalue 1:   -0.0000063184 (or 2*-0.0000031592  )
eigenvector:
  0.000133  0.000023  0.000021 -0.002222 -0.002221 -0.005434  1.000000

Projection of redundancies out of step:
	Original dq     Projected dq     Difference
	    0.000133        0.000133       0.000000
	    0.000023        0.000023       0.000000
	    0.000021        0.000021       0.000000
	   -0.002222       -0.002222       0.000000
	   -0.002221       -0.002221      -0.000000
	   -0.005434       -0.005434       0.000000
dq:
  0.000133  0.000023  0.000021 -0.002222 -0.002221 -0.005434
fq:
  0.000096  0.000010  0.000009 -0.000356 -0.000355 -0.000870
	lambda calculated by (dq^t).(-f)     =        -0.0000063184
	Analytic derivative d(norm)/d(alpha) =        -0.0000000031
	Final scaled step dq:
  0.000133  0.000023  0.000021 -0.002222 -0.002221 -0.005434
	Norm of target step-size    0.00628
	Projected energy change by RFO approximation:        -0.0000058479

	Back-transformation to cartesian coordinates...
	 In displace_util 
	       Original         Target           Dq
	   2.4232201467   2.4233530899   0.0001329433
	   1.9272347569   1.9272578350   0.0000230781
	   1.9272370496   1.9272579147   0.0000208650
	   2.0739957580   2.0717734739  -0.0022222841
	   2.0739950780   2.0717735943  -0.0022214837
	   2.0496889830   2.0442545941  -0.0054343889
	---------------------------------------------------
	 Iter        RMS(dx)        Max(dx)        RMS(dq) 
	---------------------------------------------------
	    1        4.0e-03        9.5e-03        4.9e-05
	    2        5.5e-05        8.6e-05        4.8e-07
	    3        8.3e-07        1.9e-06        9.8e-09
	    4        1.7e-08        3.9e-08        2.0e-10
	---------------------------------------------------

	Report of back-transformation:
	  int       q_target          Error
	-----------------------------------
	    1   2.4233530899   0.0000000000
	    2   1.9272578350   0.0000000000
	    3   1.9272579147   0.0000000000
	    4   2.0717734739   0.0000000003
	    5   2.0717735943   0.0000000003
	    6   2.0442545941   0.0000000003

	Successfully converged to displaced geometry.

	--- Internal Coordinate Step in ANG or DEG, aJ/ANG or AJ/DEG ---
	 ---------------------------------------------------------------------------
	   Coordinate                Previous        Force       Change         New 
	   ----------                --------       ------       ------       ------
	    1 R(1,2)          =      1.282313     0.000792     0.000070     1.282383
	    2 R(1,3)          =      1.019849     0.000084     0.000012     1.019861
	    3 R(1,4)          =      1.019850     0.000076     0.000011     1.019861
	    4 B(2,1,3)        =    118.831204    -0.000027    -0.134142   118.697062
	    5 B(2,1,4)        =    118.831165    -0.000027    -0.134096   118.697068
	    6 B(3,1,4)        =    117.438528    -0.000066    -0.319487   117.119041
	 ---------------------------------------------------------------------------
	Successfully symmetrized geometry.
Symmetrized geometry
  1.082407  0.150418  0.369244
 -1.170689 -0.188419 -0.456219
  1.821436  1.930082  0.338376
  1.775253 -1.065697  1.694141

  ==> Convergence Check <==

  Measures of convergence in internal coordinates in au.
  Criteria marked as inactive (o), active & met (*), and active & unmet ( ).
  --------------------------------------------------------------------------------------------- ~
   Step     Total Energy     Delta E     MAX Force     RMS Force      MAX Disp      RMS Disp    ~
  --------------------------------------------------------------------------------------------- ~
    Convergence Criteria    1.00e-06 *    3.00e-04 *             o    1.20e-03 *             o  ~
  --------------------------------------------------------------------------------------------- ~
      1    -131.08932851   -1.31e+02      8.70e-04      4.12e-04 o    5.58e-03      2.65e-03 o  ~
  ---------------------------------------------------------------------------------------------

	Writing optimization data to binary file.
	Structure for next step:
	Cartesian Geometry (in Angstrom)
	    N     0.5727848995   0.0795976041   0.1953955791
	    O    -0.6195020419  -0.0997068585  -0.2414207335
	    H     0.9638623670   1.0213554771   0.1790608938
	    H     0.9394234045  -0.5639426697   0.8965007835
			--------------------------
			 OPTKING Finished Execution 
			--------------------------

    Structure for next step:
    Molecular point group: c1
    Full point group: C1

    Geometry (in Angstrom), charge = 0, multiplicity = 2:

    N            0.571846360757     0.080197332271     0.196688381468
    O           -0.620440585402    -0.099107131054    -0.240127932828
    H            0.962923829722     1.021955209011     0.180353696048
    H            0.938484867125    -0.563342944107     0.897793588562

gradient() will perform analytic gradient computation.

*** tstart() called on FACC02D75Y4MD6T.tld
*** at Sun Sep 20 12:21:37 2020

   => Loading Basis Set <=

    Name: 6-31G(D_P)
    Role: ORBITAL
    Keyword: BASIS
    atoms 1   entry N          line   132 file /Users/blais.ch/anaconda3/envs/rmg_env/share/psi4/basis/6-31g_d_p_.gbs 
    atoms 2   entry O          line   149 file /Users/blais.ch/anaconda3/envs/rmg_env/share/psi4/basis/6-31g_d_p_.gbs 
    atoms 3-4 entry H          line    44 file /Users/blais.ch/anaconda3/envs/rmg_env/share/psi4/basis/6-31g_d_p_.gbs 


         ---------------------------------------------------------
                                   SCF
               by Justin Turney, Rob Parrish, Andy Simmonett
                          and Daniel G. A. Smith
                              UKS Reference
                        1 Threads,    976 MiB Core
         ---------------------------------------------------------

  ==> Geometry <==

    Molecular point group: c1
    Full point group: C1

    Geometry (in Angstrom), charge = 0, multiplicity = 2:

       Center              X                  Y                   Z               Mass       
    ------------   -----------------  -----------------  -----------------  -----------------
         N            0.571846360757     0.080197332271     0.196688381468    14.003074004430
         O           -0.620440585402    -0.099107131054    -0.240127932828    15.994914619570
         H            0.962923829722     1.021955209011     0.180353696048     1.007825032230
         H            0.938484867125    -0.563342944107     0.897793588562     1.007825032230

           N
              BASIS           6-31G(D_P)           be17c05ec1461ad3097843c20da1040adf86ba79
              DF_BASIS_SCF    (6-31G(D_P) AUX)     8eb73939244d0ff71e080d82475ea73ba87737d3
           O
              BASIS           6-31G(D_P)           ec2d227169b1af6c6a69bc8715bab79dbd7bb644
              DF_BASIS_SCF    (6-31G(D_P) AUX)     b57462463db1b385e39e4428a46364991bcd7673
           H
              BASIS           6-31G(D_P)           902186d0f3205710946c2c15d2c68458d6f6cc2a
              DF_BASIS_SCF    (6-31G(D_P) AUX)     1164366b470d7a66fddaf681ef9d1c28421b3e4a
           H
              BASIS           6-31G(D_P)           902186d0f3205710946c2c15d2c68458d6f6cc2a
              DF_BASIS_SCF    (6-31G(D_P) AUX)     1164366b470d7a66fddaf681ef9d1c28421b3e4a

  Running in c1 symmetry.

  Rotational constants: A =     10.58021  B =      1.12677  C =      1.02666 [cm^-1]
  Rotational constants: A = 317186.59136  B =  33779.64986  C =  30778.41402 [MHz]
  Nuclear repulsion =   34.941954333661684

  Charge       = 0
  Multiplicity = 2
  Electrons    = 17
  Nalpha       = 9
  Nbeta        = 8

  ==> Algorithm <==

  SCF Algorithm Type is DIRECT.
  DIIS enabled.
  MOM disabled.
  Fractional occupation disabled.
  Guess Type is READ.
  Energy threshold   = 1.00e-08
  Density threshold  = 1.00e-08
  Integral threshold = 0.00e+00

  ==> Primary Basis <==

  -AO BASIS SET INFORMATION:
    Name                   = 6-31G(D_P)
    Blend                  = 6-31G(D_P)
    Total number of shells = 18
    Number of primitives   = 40
    Number of AO           = 40
    Number of SO           = 40
    Maximum AM             = 2
    Spherical Harmonics    = FALSE

  -Contraction Scheme:
    Atom   Type   All Primitives // Shells:
   ------ ------ --------------------------
       1     N     10s 4p 1d // 3s 2p 1d 
       2     O     10s 4p 1d // 3s 2p 1d 
       3     H     4s 1p // 2s 1p 
       4     H     4s 1p // 2s 1p 

  ==> AO Basis Functions <==

    [ 6-31G(D_P) ]
    cartesian
    ****
    N   1
    S   6 1.00
                      4173.51100000           0.00183480
                       627.45790000           0.01399500
                       142.90210000           0.06858700
                        40.23433000           0.23224100
                        12.82021000           0.46907000
                         4.39043700           0.36045500
    S   3 1.00
                        11.62635800          -0.11496100
                         2.71628000          -0.16911800
                         0.77221800           1.14585200
    P   3 1.00
                        11.62635800           0.06758000
                         2.71628000           0.32390700
                         0.77221800           0.74089500
    S   1 1.00
                         0.21203130           1.00000000
    P   1 1.00
                         0.21203130           1.00000000
    D   1 1.00
                         0.80000000           1.00000000
    ****
    O   2
    S   6 1.00
                      5484.67170000           0.00183110
                       825.23495000           0.01395010
                       188.04696000           0.06844510
                        52.96450000           0.23271430
                        16.89757000           0.47019300
                         5.79963530           0.35852090
    S   3 1.00
                        15.53961600          -0.11077750
                         3.59993360          -0.14802630
                         1.01376180           1.13076700
    P   3 1.00
                        15.53961600           0.07087430
                         3.59993360           0.33975280
                         1.01376180           0.72715860
    S   1 1.00
                         0.27000580           1.00000000
    P   1 1.00
                         0.27000580           1.00000000
    D   1 1.00
                         0.80000000           1.00000000
    ****
    H   3
    S   3 1.00
                        18.73113700           0.03349460
                         2.82539370           0.23472695
                         0.64012170           0.81375733
    S   1 1.00
                         0.16127780           1.00000000
    P   1 1.00
                         1.10000000           1.00000000
    ****
    H   4
    S   3 1.00
                        18.73113700           0.03349460
                         2.82539370           0.23472695
                         0.64012170           0.81375733
    S   1 1.00
                         0.16127780           1.00000000
    P   1 1.00
                         1.10000000           1.00000000
    ****

  ==> DFT Potential <==

   => Composite Functional: B3LYP <= 

    B3LYP Hyb-GGA Exchange-Correlation Functional

    P. J. Stephens, F. J. Devlin, C. F. Chabalowski, and M. J. Frisch, J. Phys. Chem. 98, 11623 (1994)

    Deriv               =              1
    GGA                 =           TRUE
    Meta                =          FALSE

    Exchange Hybrid     =           TRUE
    MP2 Hybrid          =          FALSE

   => Exchange Functionals <=

    0.0800   Slater exchange
    0.7200         Becke 88

   => Exact (HF) Exchange <=

    0.2000               HF 

   => Correlation Functionals <=

    0.1900   Vosko, Wilk & Nusair (VWN5_RPA)
    0.8100   Lee, Yang & Parr

   => XC_HYB_GGA_XC_B3LYP Functional <=

    B3LYP
    P. J. Stephens, F. J. Devlin, C. F. Chabalowski, and M. J. Frisch, J. Phys. Chem. 98, 11623 (1994)
    GGA   =           TRUE
    Meta  =          FALSE
    LRC   =          FALSE
    Alpha =   1.000000E+00
    Omega =   0.000000E+00

    > Parameters <


   => Molecular Quadrature <=

    Radial Scheme          =       TREUTLER
    Pruning Scheme         =           FLAT
    Nuclear Scheme         =       TREUTLER

    BS radius alpha        =              1
    Pruning alpha          =              1
    Radial Points          =             75
    Spherical Points       =            302
    Total Points           =          87064
    Total Blocks           =            721
    Max Points             =            256
    Max Functions          =             40

   => Loading Basis Set <=

    Name: (6-31G(D_P) AUX)
    Role: JKFIT
    Keyword: DF_BASIS_SCF
    atoms 1   entry N          line   171 file /Users/blais.ch/anaconda3/envs/rmg_env/share/psi4/basis/cc-pvdz-jkfit.gbs 
    atoms 2   entry O          line   221 file /Users/blais.ch/anaconda3/envs/rmg_env/share/psi4/basis/cc-pvdz-jkfit.gbs 
    atoms 3-4 entry H          line    51 file /Users/blais.ch/anaconda3/envs/rmg_env/share/psi4/basis/cc-pvdz-jkfit.gbs 

   => Loading Basis Set <=

    Name: 6-31G(D_P)
    Role: ORBITAL
    Keyword: BASIS
    atoms 1   entry N          line   132 file /Users/blais.ch/anaconda3/envs/rmg_env/share/psi4/basis/6-31g_d_p_.gbs 
    atoms 2   entry O          line   149 file /Users/blais.ch/anaconda3/envs/rmg_env/share/psi4/basis/6-31g_d_p_.gbs 
    atoms 3-4 entry H          line    44 file /Users/blais.ch/anaconda3/envs/rmg_env/share/psi4/basis/6-31g_d_p_.gbs 

  Reading orbitals from file 180, no projection.

  Starting with a DF guess...

  ==> Pre-Iterations <==

   -------------------------------------------------------
    Irrep   Nso     Nmo     Nalpha   Nbeta   Ndocc  Nsocc
   -------------------------------------------------------
     A         40      40       0       0       0       0
   -------------------------------------------------------
    Total      40      40       9       8       8       1
   -------------------------------------------------------

  ==> Integral Setup <==

  DFHelper Memory: AOs need 0.003 GiB; user supplied 0.621 GiB. Using in-core AOs.

  ==> MemDFJK: Density-Fitted J/K Matrices <==

    J tasked:                   Yes
    K tasked:                   Yes
    wK tasked:                   No
    OpenMP threads:               1
    Memory [MiB]:               636
    Algorithm:                 Core
    Schwarz Cutoff:           1E-12
    Mask sparsity (%):       0.0000
    Fitting Condition:        1E-10

   => Auxiliary Basis Set <=

  -AO BASIS SET INFORMATION:
    Name                   = (6-31G(D_P) AUX)
    Blend                  = CC-PVDZ-JKFIT
    Total number of shells = 66
    Number of primitives   = 66
    Number of AO           = 212
    Number of SO           = 212
    Maximum AM             = 3
    Spherical Harmonics    = FALSE

  -Contraction Scheme:
    Atom   Type   All Primitives // Shells:
   ------ ------ --------------------------
       1     N     10s 7p 5d 2f // 10s 7p 5d 2f 
       2     O     10s 7p 5d 2f // 10s 7p 5d 2f 
       3     H     4s 3p 2d // 4s 3p 2d 
       4     H     4s 3p 2d // 4s 3p 2d 

  ==> AO Basis Functions <==

    [ (6-31G(D_P) AUX) ]
    cartesian
    ****
    N   1
    S   1 1.00
                      1102.86224530           1.00000000
    S   1 1.00
                       370.98041153           1.00000000
    S   1 1.00
                       136.73555938           1.00000000
    S   1 1.00
                        50.75587192           1.00000000
    S   1 1.00
                        20.53565610           1.00000000
    S   1 1.00
                         7.83187372           1.00000000
    S   1 1.00
                         3.47840639           1.00000000
    S   1 1.00
                         1.45528566           1.00000000
    S   1 1.00
                         0.63068989           1.00000000
    S   1 1.00
                         0.27276596           1.00000000
    P   1 1.00
                        93.54095407           1.00000000
    P   1 1.00
                        29.52401953           1.00000000
    P   1 1.00
                        10.91750299           1.00000000
    P   1 1.00
                         4.34492890           1.00000000
    P   1 1.00
                         1.82169126           1.00000000
    P   1 1.00
                         0.75792424           1.00000000
    P   1 1.00
                         0.28241469           1.00000000
    D   1 1.00
                        16.41937893           1.00000000
    D   1 1.00
                         5.01040494           1.00000000
    D   1 1.00
                         1.97939719           1.00000000
    D   1 1.00
                         0.78495772           1.00000000
    D   1 1.00
                         0.28954066           1.00000000
    F   1 1.00
                         1.79354240           1.00000000
    F   1 1.00
                         0.60854240           1.00000000
    ****
    O   2
    S   1 1.00
                      1517.86675060           1.00000000
    S   1 1.00
                       489.67952008           1.00000000
    S   1 1.00
                       176.72118665           1.00000000
    S   1 1.00
                        63.79223314           1.00000000
    S   1 1.00
                        25.36649913           1.00000000
    S   1 1.00
                         9.91354912           1.00000000
    S   1 1.00
                         4.46453066           1.00000000
    S   1 1.00
                         1.80177437           1.00000000
    S   1 1.00
                         0.80789711           1.00000000
    S   1 1.00
                         0.33864327           1.00000000
    P   1 1.00
                       120.16030921           1.00000000
    P   1 1.00
                        34.40962247           1.00000000
    P   1 1.00
                        12.58114861           1.00000000
    P   1 1.00
                         5.06638242           1.00000000
    P   1 1.00
                         2.03469271           1.00000000
    P   1 1.00
                         0.86092967           1.00000000
    P   1 1.00
                         0.36681357           1.00000000
    D   1 1.00
                        19.04306281           1.00000000
    D   1 1.00
                         5.80603811           1.00000000
    D   1 1.00
                         2.18918416           1.00000000
    D   1 1.00
                         0.87794614           1.00000000
    D   1 1.00
                         0.35623647           1.00000000
    F   1 1.00
                         2.49391479           1.00000000
    F   1 1.00
                         0.82491479           1.00000000
    ****
    H   3
    S   1 1.00
                         9.53024933           1.00000000
    S   1 1.00
                         1.91745062           1.00000000
    S   1 1.00
                         0.68424049           1.00000000
    S   1 1.00
                         0.28413256           1.00000000
    P   1 1.00
                         2.91332320           1.00000000
    P   1 1.00
                         1.26212054           1.00000000
    P   1 1.00
                         0.50199776           1.00000000
    D   1 1.00
                         2.31353291           1.00000000
    D   1 1.00
                         0.71290724           1.00000000
    ****
    H   4
    S   1 1.00
                         9.53024933           1.00000000
    S   1 1.00
                         1.91745062           1.00000000
    S   1 1.00
                         0.68424049           1.00000000
    S   1 1.00
                         0.28413256           1.00000000
    P   1 1.00
                         2.91332320           1.00000000
    P   1 1.00
                         1.26212054           1.00000000
    P   1 1.00
                         0.50199776           1.00000000
    D   1 1.00
                         2.31353291           1.00000000
    D   1 1.00
                         0.71290724           1.00000000
    ****

  Cached 100.0% of DFT collocation blocks in 0.094 [GiB].

  Minimum eigenvalue in the overlap matrix is 8.6474777835E-03.
  Using Symmetric Orthogonalization.

  SCF Guess: Orbitals guess was supplied from a previous computation.

  ==> Iterations <==

                           Total Energy        Delta E     RMS |[F,P]|

   @DF-UKS iter   0:  -131.08896582417873   -1.31089e+02   3.29778e-04 
DIIS coefficients:  1.000 
    Occupation by irrep:
              A 
    DOCC [     8 ]
    SOCC [     1 ]

   @DF-UKS iter   1:  -131.08930477301118   -3.38949e-04   4.30245e-05 DIIS
DIIS coefficients:  0.279  0.721 
    Occupation by irrep:
              A 
    DOCC [     8 ]
    SOCC [     1 ]

   @DF-UKS iter   2:  -131.08930621487693   -1.44187e-06   1.94853e-05 DIIS
DIIS coefficients:  0.078  0.341  0.580 
    Occupation by irrep:
              A 
    DOCC [     8 ]
    SOCC [     1 ]

   @DF-UKS iter   3:  -131.08930646505195   -2.50175e-07   9.84222e-06 DIIS
DIIS coefficients:  -0.058  -0.038  0.396  0.700 
    Occupation by irrep:
              A 
    DOCC [     8 ]
    SOCC [     1 ]

   @DF-UKS iter   4:  -131.08930651200509   -4.69531e-08   5.87317e-06 DIIS
DIIS coefficients:  -0.031  -0.048  0.100  0.308  0.671 
    Occupation by irrep:
              A 
    DOCC [     8 ]
    SOCC [     1 ]

   @DF-UKS iter   5:  -131.08930653831627   -2.63112e-08   1.48847e-06 DIIS
DIIS coefficients:  0.001  -0.012  -0.052  -0.025  0.211  0.876 
    Occupation by irrep:
              A 
    DOCC [     8 ]
    SOCC [     1 ]

   @DF-UKS iter   6:  -131.08930654006690   -1.75064e-09   4.31417e-07 DIIS
DIIS coefficients:  0.003  0.002  -0.012  -0.020  -0.019  0.105  0.941 
    Occupation by irrep:
              A 
    DOCC [     8 ]
    SOCC [     1 ]

   @DF-UKS iter   7:  -131.08930654026955   -2.02647e-10   6.82739e-08 DIIS
DIIS coefficients:  -0.001  0.000  0.005  0.008  -0.011  -0.079  -0.216  1.294 
    Occupation by irrep:
              A 
    DOCC [     8 ]
    SOCC [     1 ]

   @DF-UKS iter   8:  -131.08930654027583   -6.28120e-12   2.06837e-08 DIIS
DIIS coefficients:  -0.000  -0.000  0.000  0.001  0.000  -0.000  -0.021  -0.053  1.073 
    Occupation by irrep:
              A 
    DOCC [     8 ]
    SOCC [     1 ]

   @DF-UKS iter   9:  -131.08930654027637   -5.40012e-13   3.36266e-09 DIIS

  DF guess converged.

  ==> DirectJK: Integral-Direct J/K Matrices <==

    J tasked:                  Yes
    K tasked:                  Yes
    wK tasked:                  No
    Integrals threads:           1
    Schwarz Cutoff:          1E-12

DIIS coefficients:  1.000 
    Occupation by irrep:
              A 
    DOCC [     8 ]
    SOCC [     1 ]

   @UKS iter  10:  -131.08933152663295   -1.31089e+02   5.40631e-06 DIIS
DIIS coefficients:  0.060  0.940 
    Occupation by irrep:
              A 
    DOCC [     8 ]
    SOCC [     1 ]

   @UKS iter  11:  -131.08933154894046   -2.23075e-08   1.14989e-06 DIIS
DIIS coefficients:  -0.009  0.510  0.499 
    Occupation by irrep:
              A 
    DOCC [     8 ]
    SOCC [     1 ]

   @UKS iter  12:  -131.08933154903295   -9.24842e-11   1.18763e-06 DIIS
DIIS coefficients:  -0.011  0.207  0.286  0.518 
    Occupation by irrep:
              A 
    DOCC [     8 ]
    SOCC [     1 ]

   @UKS iter  13:  -131.08933154979476   -7.61815e-10   4.06804e-07 DIIS
DIIS coefficients:  -0.005  0.062  0.094  0.308  0.541 
    Occupation by irrep:
              A 
    DOCC [     8 ]
    SOCC [     1 ]

   @UKS iter  14:  -131.08933154989131   -9.65485e-11   1.36705e-07 DIIS
DIIS coefficients:  0.002  -0.041  -0.071  -0.074  -0.169  1.352 
    Occupation by irrep:
              A 
    DOCC [     8 ]
    SOCC [     1 ]

   @UKS iter  15:  -131.08933154990234   -1.10276e-11   3.34597e-08 DIIS
DIIS coefficients:  -0.000  0.003  0.006  0.001  -0.005  -0.168  1.163 
    Occupation by irrep:
              A 
    DOCC [     8 ]
    SOCC [     1 ]

   @UKS iter  16:  -131.08933154990365   -1.30740e-12   3.24580e-09 DIIS
  Energy and wave function converged.


  ==> Post-Iterations <==

   @Spin Contamination Metric:   2.985238881E-03
   @S^2 Expected:                7.500000000E-01
   @S^2 Observed:                7.529852389E-01
   @S   Expected:                5.000000000E-01
   @S   Observed:                5.000000000E-01

    Orbital Energies [Eh]
    ---------------------

    Alpha Occupied:                                                       

       1A    -19.164275     2A    -14.425640     3A     -1.090982  
       4A     -0.783760     5A     -0.560571     6A     -0.473175  
       7A     -0.435087     8A     -0.269804     9A     -0.218442  

    Alpha Virtual:                                                        

      10A      0.059280    11A      0.134701    12A      0.222766  
      13A      0.595990    14A      0.640418    15A      0.704924  
      16A      0.748697    17A      0.830849    18A      0.864515  
      19A      0.933557    20A      0.967391    21A      1.025834  
      22A      1.313533    23A      1.371462    24A      1.432130  
      25A      1.737006    26A      1.799084    27A      1.949097  
      28A      2.042365    29A      2.051971    30A      2.093807  
      31A      2.362504    32A      2.527074    33A      2.532766  
      34A      2.762384    35A      2.808756    36A      2.923979  
      37A      3.284389    38A      3.415689    39A      3.526461  
      40A      3.889530  

    Beta Occupied:                                                        

       1A    -19.147230     2A    -14.416820     3A     -1.061878  
       4A     -0.752943     5A     -0.553323     6A     -0.450830  
       7A     -0.358104     8A     -0.253495  

    Beta Virtual:                                                         

       9A     -0.053185    10A      0.065644    11A      0.138307  
      12A      0.239286    13A      0.605175    14A      0.671316  
      15A      0.713978    16A      0.752059    17A      0.836057  
      18A      0.876945    19A      0.974870    20A      0.996284  
      21A      1.034391    22A      1.329118    23A      1.388813  
      24A      1.458104    25A      1.772437    26A      1.832776  
      27A      1.953834    28A      2.053938    29A      2.063832  
      30A      2.109633    31A      2.382443    32A      2.544042  
      33A      2.552139    34A      2.778625    35A      2.814917  
      36A      2.929759    37A      3.291827    38A      3.420546  
      39A      3.552230    40A      3.904530  

    Final Occupation by Irrep:
              A 
    DOCC [     8 ]
    SOCC [     1 ]

  @UKS Final Energy:  -131.08933154990365

   => Energetics <=

    Nuclear Repulsion Energy =             34.9419543336616840
    One-Electron Energy =                -248.2383939490500211
    Two-Electron Energy =                  95.3036896273695646
    DFT Exchange-Correlation Energy =     -13.0965815618848751
    Empirical Dispersion Energy =           0.0000000000000000
    VV10 Nonlocal Energy =                  0.0000000000000000
    Total Energy =                       -131.0893315499036476

  UHF NO Occupations:
  HONO-2 :    7  A 1.9997206
  HONO-1 :    8  A 1.9990971
  HONO-0 :    9  A 1.0000000
  LUNO+0 :   10  A 0.0009029
  LUNO+1 :   11  A 0.0002794
  LUNO+2 :   12  A 0.0001398
  LUNO+3 :   13  A 0.0001290


Computation Completed


Properties will be evaluated at   0.000000,   0.000000,   0.000000 [a0]

Properties computed using the SCF density matrix

  Nuclear Dipole Moment: [e a0]
     X:     1.7779      Y:     0.4292      Z:     1.0090

  Electronic Dipole Moment: [e a0]
     X:    -0.8035      Y:    -0.1693      Z:    -0.4014

  Dipole Moment: [e a0]
     X:     0.9744      Y:     0.2599      Z:     0.6076     Total:     1.1774

  Dipole Moment: [D]
     X:     2.4767      Y:     0.6607      Z:     1.5443     Total:     2.9926


*** tstop() called on FACC02D75Y4MD6T.tld at Sun Sep 20 12:21:39 2020
Module time:
	user time   =       2.54 seconds =       0.04 minutes
	system time =       0.07 seconds =       0.00 minutes
	total time  =          2 seconds =       0.03 minutes
Total time:
	user time   =       6.14 seconds =       0.10 minutes
	system time =       0.18 seconds =       0.00 minutes
	total time  =          6 seconds =       0.10 minutes

*** tstart() called on FACC02D75Y4MD6T.tld
*** at Sun Sep 20 12:21:39 2020


         ------------------------------------------------------------
                                   SCF GRAD                          
                          Rob Parrish, Justin Turney,                
                       Andy Simmonett, and Alex Sokolov              
         ------------------------------------------------------------

  ==> Geometry <==

    Molecular point group: c1
    Full point group: C1

    Geometry (in Angstrom), charge = 0, multiplicity = 2:

       Center              X                  Y                   Z               Mass       
    ------------   -----------------  -----------------  -----------------  -----------------
         N            0.571846360757     0.080197332271     0.196688381468    14.003074004430
         O           -0.620440585402    -0.099107131054    -0.240127932828    15.994914619570
         H            0.962923829722     1.021955209011     0.180353696048     1.007825032230
         H            0.938484867125    -0.563342944107     0.897793588562     1.007825032230

           N
              BASIS           6-31G(D_P)           be17c05ec1461ad3097843c20da1040adf86ba79
              DF_BASIS_SCF    (6-31G(D_P) AUX)     8eb73939244d0ff71e080d82475ea73ba87737d3
           O
              BASIS           6-31G(D_P)           ec2d227169b1af6c6a69bc8715bab79dbd7bb644
              DF_BASIS_SCF    (6-31G(D_P) AUX)     b57462463db1b385e39e4428a46364991bcd7673
           H
              BASIS           6-31G(D_P)           902186d0f3205710946c2c15d2c68458d6f6cc2a
              DF_BASIS_SCF    (6-31G(D_P) AUX)     1164366b470d7a66fddaf681ef9d1c28421b3e4a
           H
              BASIS           6-31G(D_P)           902186d0f3205710946c2c15d2c68458d6f6cc2a
              DF_BASIS_SCF    (6-31G(D_P) AUX)     1164366b470d7a66fddaf681ef9d1c28421b3e4a

  Nuclear repulsion =   34.941954333661684

  ==> Basis Set <==

  -AO BASIS SET INFORMATION:
    Name                   = 6-31G(D_P)
    Blend                  = 6-31G(D_P)
    Total number of shells = 18
    Number of primitives   = 40
    Number of AO           = 40
    Number of SO           = 40
    Maximum AM             = 2
    Spherical Harmonics    = FALSE

  -Contraction Scheme:
    Atom   Type   All Primitives // Shells:
   ------ ------ --------------------------
       1     N     10s 4p 1d // 3s 2p 1d 
       2     O     10s 4p 1d // 3s 2p 1d 
       3     H     4s 1p // 2s 1p 
       4     H     4s 1p // 2s 1p 

  ==> AO Basis Functions <==

    [ 6-31G(D_P) ]
    cartesian
    ****
    N   1
    S   6 1.00
                      4173.51100000           0.00183480
                       627.45790000           0.01399500
                       142.90210000           0.06858700
                        40.23433000           0.23224100
                        12.82021000           0.46907000
                         4.39043700           0.36045500
    S   3 1.00
                        11.62635800          -0.11496100
                         2.71628000          -0.16911800
                         0.77221800           1.14585200
    P   3 1.00
                        11.62635800           0.06758000
                         2.71628000           0.32390700
                         0.77221800           0.74089500
    S   1 1.00
                         0.21203130           1.00000000
    P   1 1.00
                         0.21203130           1.00000000
    D   1 1.00
                         0.80000000           1.00000000
    ****
    O   2
    S   6 1.00
                      5484.67170000           0.00183110
                       825.23495000           0.01395010
                       188.04696000           0.06844510
                        52.96450000           0.23271430
                        16.89757000           0.47019300
                         5.79963530           0.35852090
    S   3 1.00
                        15.53961600          -0.11077750
                         3.59993360          -0.14802630
                         1.01376180           1.13076700
    P   3 1.00
                        15.53961600           0.07087430
                         3.59993360           0.33975280
                         1.01376180           0.72715860
    S   1 1.00
                         0.27000580           1.00000000
    P   1 1.00
                         0.27000580           1.00000000
    D   1 1.00
                         0.80000000           1.00000000
    ****
    H   3
    S   3 1.00
                        18.73113700           0.03349460
                         2.82539370           0.23472695
                         0.64012170           0.81375733
    S   1 1.00
                         0.16127780           1.00000000
    P   1 1.00
                         1.10000000           1.00000000
    ****
    H   4
    S   3 1.00
                        18.73113700           0.03349460
                         2.82539370           0.23472695
                         0.64012170           0.81375733
    S   1 1.00
                         0.16127780           1.00000000
    P   1 1.00
                         1.10000000           1.00000000
    ****

  ==> DirectJKGrad: Integral-Direct SCF Gradients <==

    Gradient:                    1
    J tasked:                  Yes
    K tasked:                  Yes
    wK tasked:                  No
    Integrals threads:           1
    Schwarz Cutoff:          0E+00

  ==> DFT Potential <==

   => Composite Functional: B3LYP <= 

    B3LYP Hyb-GGA Exchange-Correlation Functional

    P. J. Stephens, F. J. Devlin, C. F. Chabalowski, and M. J. Frisch, J. Phys. Chem. 98, 11623 (1994)

    Deriv               =              1
    GGA                 =           TRUE
    Meta                =          FALSE

    Exchange Hybrid     =           TRUE
    MP2 Hybrid          =          FALSE

   => Exchange Functionals <=

    0.0800   Slater exchange
    0.7200         Becke 88

   => Exact (HF) Exchange <=

    0.2000               HF 

   => Correlation Functionals <=

    0.1900   Vosko, Wilk & Nusair (VWN5_RPA)
    0.8100   Lee, Yang & Parr

   => XC_HYB_GGA_XC_B3LYP Functional <=

    B3LYP
    P. J. Stephens, F. J. Devlin, C. F. Chabalowski, and M. J. Frisch, J. Phys. Chem. 98, 11623 (1994)
    GGA   =           TRUE
    Meta  =          FALSE
    LRC   =          FALSE
    Alpha =   1.000000E+00
    Omega =   0.000000E+00

    > Parameters <


   => Molecular Quadrature <=

    Radial Scheme          =       TREUTLER
    Pruning Scheme         =           FLAT
    Nuclear Scheme         =       TREUTLER

    BS radius alpha        =              1
    Pruning alpha          =              1
    Radial Points          =             75
    Spherical Points       =            302
    Total Points           =          87064
    Total Blocks           =            721
    Max Points             =            256
    Max Functions          =             40


  -Nuclear Gradient:
     Atom            X                  Y                   Z
    ------   -----------------  -----------------  -----------------
       1       -7.465613135153    -0.782224917654    -1.982762517517
       2        9.765684792932     1.521402657278     3.694443655336
       3       -1.177414170770    -2.145552623668    -0.052113436995
       4       -1.122657487009     1.406374884043    -1.659567700824


  -Core Hamiltonian Gradient:
     Atom            X                  Y                   Z
    ------   -----------------  -----------------  -----------------
       1       15.143908563767     1.289472513696     3.365164023466
       2      -20.438146601631    -3.086708960438    -7.516788435475
       3        2.717277292624     5.449616424676     0.016220155524
       4        2.576960745241    -3.652379977934     4.135404256485


  -Overlap Gradient:
     Atom            X                  Y                   Z
    ------   -----------------  -----------------  -----------------
       1       -0.166454563717     0.021746438161     0.042382016969
       2        0.329268259600     0.045322057678     0.111362635498
       3       -0.084034596646    -0.203990138591     0.000268905128
       4       -0.078779099237     0.136921642752    -0.154013557596


  -Coulomb Gradient:
[...]
  -0.0238876576]
 [ 0.0302396111 -0.0761808994  0.0644049067  0.0356618689 -0.0824877359
  -0.0543479008]
 [ 0.0335791041  0.0172414114  0.0356618689  0.1617188218  0.000992407
  -0.1242001036]
 [ 0.0016612536  0.1834307543 -0.0824877359  0.000992407   0.2971711646
   0.0009101219]
 [-0.0441259766 -0.0238876576 -0.0543479008 -0.1242001036  0.0009101219
   0.3509969521]]

    Normal coordinates (non-mass-weighted) for irrep A:

[[ 1.1877819316e-03 -3.2010386880e-02  7.0441120723e-02  1.6364959303e-01
   1.3908503822e-03 -6.6218156494e-02]
 [ 7.7034991974e-02 -1.2199576192e-02  1.4661346049e-02  2.6746978038e-02
   9.0129831386e-02  4.4235829497e-02]
 [-3.4862590358e-02 -2.8048081024e-02  3.4795957290e-02  6.4677616384e-02
  -4.0789840871e-02  9.5488129023e-02]
 [-1.9579058630e-05 -3.0432598959e-03 -9.7445962412e-04 -1.6301686000e-01
  -8.5444086000e-04  1.3496456640e-02]
 [-1.2677222881e-03 -7.1494681233e-04  2.5459135728e-03 -2.6141189246e-02
  -5.5362782531e-02 -1.2029862898e-02]
 [ 5.7369478213e-04 -1.6835512611e-03  5.5925525197e-03 -6.3316938269e-02
   2.5054813030e-02 -2.6120680278e-02]
 [-2.4444459344e-01  2.5507292350e-01 -4.7671414260e-01  1.5657005669e-01
   5.6849878277e-01  3.5373558205e-01]
 [-6.2161478683e-01  6.4460832278e-01  1.9704364476e-01  1.3666480839e-02
  -1.2248502464e-01 -1.5996204443e-01]
 [ 1.6369309270e-02 -4.2586679790e-02 -4.3052418559e-01  5.6716457160e-02
   2.4618718359e-01 -4.7957719140e-01]
 [ 2.2825186911e-01  2.3798934694e-01 -4.8655408047e-01  1.5682104306e-01
  -5.7426314865e-01  3.5212411726e-01]
 [-4.2861670171e-01 -4.6375641334e-01 -4.4115901805e-01  2.9581281217e-02
  -2.5116288764e-01 -2.6374341088e-01]
 [ 4.5891877983e-01  4.5901572205e-01 -1.4170089972e-01  4.9515844587e-02
  -7.7076911787e-02 -4.3261416822e-01]]

    Force constant matrix for all computed irreps in mass-weighted SALCS.

[[ 0.0796822452  0.0151475523  0.0302396111  0.0335791041  0.0016612536
  -0.0441259766]
 [ 0.0151475523  0.199479567  -0.0761808994  0.0172414114  0.1834307543
  -0.0238876576]
 [ 0.0302396111 -0.0761808994  0.0644049067  0.0356618689 -0.0824877359
  -0.0543479008]
 [ 0.0335791041  0.0172414114  0.0356618689  0.1617188218  0.000992407
  -0.1242001036]
 [ 0.0016612536  0.1834307543 -0.0824877359  0.000992407   0.2971711646
   0.0009101219]
 [-0.0441259766 -0.0238876576 -0.0543479008 -0.1242001036  0.0009101219
   0.3509969521]]

    Force constants in mass-weighted Cartesian coordinates.

[[ 4.1458524807e-02  8.7509868011e-03  1.8859802606e-02 -2.8669952711e-02
  -4.2131116834e-03 -1.0068336614e-02 -2.0786956747e-02 -2.8601112295e-02
  -6.2273065119e-03 -1.9534632144e-02  1.2765926399e-02 -2.3962526230e-02]
 [ 8.7509868011e-03  4.8199816736e-02 -1.5728016581e-02 -4.5423492473e-03
  -6.0163932857e-03  6.7543821206e-04 -2.7522375122e-02 -9.8776311099e-02
   5.4662068552e-03  1.2998808446e-02 -5.6920958312e-02  5.0469357188e-02]
 [ 1.8859802606e-02 -1.5728016581e-02  2.1341514014e-02 -1.0795876808e-02
   6.8668475557e-04 -5.2426271568e-03 -4.8641086132e-03  1.2291309994e-02
  -7.7788182325e-03 -2.2427343730e-02  4.3599449980e-02 -5.0886324714e-02]
 [-2.8669952711e-02 -4.5423492473e-03 -1.0795876808e-02  3.1054049693e-02
   5.0016718501e-03  1.1984867716e-02 -8.5765256468e-03 -4.1841386180e-03
  -2.5663969648e-03 -8.2692337101e-03  1.1901027059e-03 -4.9372472171e-03]
 [-4.2131116834e-03 -6.0163932857e-03  6.8668475557e-04  5.0016718501e-03
   3.8741958912e-03  6.2490794517e-04 -9.4064725082e-03  2.5360037048e-03
  -4.0799424975e-03  5.1851994246e-03  4.4561257999e-03 -9.6919682061e-04]
 [-1.0068336614e-02  6.7543821206e-04 -5.2426271568e-03  1.1984867716e-02
   6.2490794517e-04  5.4576354090e-03 -1.8198874752e-03 -2.9748087320e-03
   1.3696402591e-05 -8.3956719547e-03 -2.0324089534e-03 -2.2139088204e-03]
 [-2.0786956747e-02 -2.7522375122e-02 -4.8641086132e-03 -8.5765256468e-03
  -9.4064725082e-03 -1.8198874752e-03  1.0409256470e-01  1.2925211205e-01
   2.3267596781e-02  7.5583096664e-03  1.0811468143e-02  2.1135115846e-03]
 [-2.8601112295e-02 -9.8776311099e-02  1.2291309994e-02 -4.1841386180e-03
   2.5360037048e-03 -2.9748087320e-03  1.2925211205e-01  3.7025637396e-01
  -2.7112955112e-02 -5.9723006416e-03 -1.2169380349e-02 -6.8519912594e-03]
 [-6.2273065119e-03  5.4662068552e-03 -7.7788182325e-03 -2.5663969648e-03
  -4.0799424975e-03  1.3696402591e-05  2.3267596781e-02 -2.7112955112e-02
   2.6684959459e-02  1.0168799373e-02  2.2991307429e-02  2.2561197645e-03]
 [-1.9534632144e-02  1.2998808446e-02 -2.2427343730e-02 -8.2692337101e-03
   5.1851994246e-03 -8.3956719547e-03  7.5583096664e-03 -5.9723006416e-03
   1.0168799373e-02  9.8200316890e-02 -6.3137760393e-02  1.0687615178e-01]
 [ 1.2765926399e-02 -5.6920958312e-02  4.3599449980e-02  1.1901027059e-03
   4.4561257999e-03 -2.0324089534e-03  1.0811468143e-02 -1.2169380349e-02
   2.2991307429e-02 -6.3137760393e-02  2.0659062096e-01 -1.7741208015e-01]
 [-2.3962526230e-02  5.0469357188e-02 -5.0886324714e-02 -4.9372472171e-03
  -9.6919682061e-04 -2.2139088204e-03  2.1135115846e-03 -6.8519912594e-03
   2.2561197645e-03  1.0687615178e-01 -1.7741208015e-01  1.9624308487e-01]]

    Force constants in Cartesian coordinates.

[[ 5.8054679099e-01  1.2254071579e-01  2.6409521161e-01 -4.2907146357e-01
  -6.3052981441e-02 -1.5068165512e-01 -7.8089955429e-02 -1.0744524134e-01
  -2.3394001049e-02 -7.3385371989e-02  4.7957506989e-02 -9.0019555437e-02]
 [ 1.2254071579e-01  6.7494560075e-01 -2.2024058013e-01 -6.7980315812e-02
  -9.0040702145e-02  1.0108536457e-02 -1.0339277041e-01 -3.7107104349e-01
   2.0534792797e-02  4.8832370438e-02 -2.1383385512e-01  1.8959725088e-01]
 [ 2.6409521161e-01 -2.2024058013e-01  2.9884680010e-01 -1.6156994430e-01
   1.0276851031e-02 -7.8460600540e-02 -1.8272902062e-02  4.6174524788e-02
  -2.9222534903e-02 -8.4252365247e-02  1.6378920431e-01 -1.9116366466e-01]
 [-4.2907146357e-01 -6.7980315812e-02 -1.6156994430e-01  4.9670687343e-01
   8.0001314198e-02  1.9169693584e-01 -3.4434590628e-02 -1.6799238570e-02
  -1.0304035983e-02 -3.3200819229e-02  4.7782401839e-03 -1.9822955559e-02]
 [-6.3052981441e-02 -9.0040702145e-02  1.0276851031e-02  8.0001314198e-02
   6.1967432499e-02  9.9953492280e-03 -3.7766811808e-02  1.0182007610e-02
  -1.6380893088e-02  2.0818479051e-02  1.7891262036e-02 -3.8913071714e-03]
 [-1.5068165512e-01  1.0108536457e-02 -7.8460600540e-02  1.9169693584e-01
   9.9953492280e-03  8.7294412391e-02 -7.3068142951e-03 -1.1943801616e-02
   5.4990801138e-05 -3.3708466425e-02 -8.1600840689e-03 -8.8888026522e-03]
 [-7.8089955429e-02 -1.0339277041e-01 -1.8272902062e-02 -3.4434590628e-02
  -3.7766811808e-02 -7.3068142951e-03  1.0490709237e-01  1.3026351399e-01
   2.3449666476e-02  7.6174536832e-03  1.0896068230e-02  2.1300498808e-03]
 [-1.0744524134e-01 -3.7107104349e-01  4.6174524788e-02 -1.6799238570e-02
   1.0182007610e-02 -1.1943801616e-02  1.3026351399e-01  3.7315364202e-01
  -2.7325114860e-02 -6.0190340866e-03 -1.2264606142e-02 -6.9056083118e-03]
 [-2.3394001049e-02  2.0534792797e-02 -2.9222534903e-02 -1.0304035983e-02
  -1.6380893088e-02  5.4990801138e-05  2.3449666476e-02 -2.7325114860e-02
   2.6893770127e-02  1.0248370556e-02  2.3171215151e-02  2.2737739744e-03]
 [-7.3385371989e-02  4.8832370438e-02 -8.4252365247e-02 -3.3200819229e-02
   2.0818479051e-02 -3.3708466425e-02  7.6174536832e-03 -6.0190340866e-03
   1.0248370556e-02  9.8968737535e-02 -6.3631815403e-02  1.0771246112e-01]
 [ 4.7957506989e-02 -2.1383385512e-01  1.6378920431e-01  4.7782401839e-03
   1.7891262036e-02 -8.1600840689e-03  1.0896068230e-02 -1.2264606142e-02
   2.3171215151e-02 -6.3631815403e-02  2.0820719923e-01 -1.7880033539e-01]
 [-9.0019555437e-02  1.8959725088e-01 -1.9116366466e-01 -1.9822955559e-02
  -3.8913071714e-03 -8.8888026522e-03  2.1300498808e-03 -6.9056083118e-03
   2.2737739744e-03  1.0771246112e-01 -1.7880033539e-01  1.9777869333e-01]]

-------------------------------------------------------------


  ==> Harmonic Vibrational Analysis <==

  non-mass-weighted Hessian:       Symmetric? True   Hermitian? True   Lin Dep Dim?  6 (0)
  projection of translations (True) and rotations (True) removed 6 degrees of freedom (6)
  total projector:                 Symmetric? True   Hermitian? True   Lin Dep Dim?  6 (6)
  mass-weighted Hessian:           Symmetric? True   Hermitian? True   Lin Dep Dim?  6 (0)
  pre-proj  low-frequency mode:    0.0000i [cm^-1]
  pre-proj  low-frequency mode:    0.0000i [cm^-1]
  pre-proj  low-frequency mode:    0.0000i [cm^-1]
  pre-proj  low-frequency mode:    0.0000  [cm^-1]
  pre-proj  low-frequency mode:    0.0000  [cm^-1]
  pre-proj  low-frequency mode:    0.0000  [cm^-1]
  pre-proj  all modes:['0.0000i' '0.0000i' '0.0000i' '0.0000' '0.0000' '0.0000' '467.3057'
 '1278.4279' '1387.4056' '1674.9776' '3391.2849' '3520.7316']
  projected mass-weighted Hessian: Symmetric? True   Hermitian? True   Lin Dep Dim?  6 (6)
  post-proj low-frequency mode:    0.0000i [cm^-1] (TR)
  post-proj low-frequency mode:    0.0000i [cm^-1] (TR)
  post-proj low-frequency mode:    0.0000i [cm^-1] (TR)
  post-proj low-frequency mode:    0.0000  [cm^-1] (TR)
  post-proj low-frequency mode:    0.0000  [cm^-1] (TR)
  post-proj low-frequency mode:    0.0000  [cm^-1] (TR)
  post-proj  all modes:['0.0000i' '0.0000i' '0.0000i' '0.0000' '0.0000' '0.0000' '467.3057'
 '1278.4279' '1387.4056' '1674.9776' '3391.2849' '3520.7316']

  Vibration                       7                   8                   9           
  Freq [cm^-1]                 467.3057           1278.4279           1387.4056       
  Irrep                           A                   A                   A           
  Reduced mass [u]              1.2855              1.2329              8.4186        
  Force const [mDyne/A]         0.1654              1.1872              9.5477        
  Turning point v=0 [a0]        0.4477              0.2764              0.1015        
  RMS dev v=0 [a0 u^1/2]        0.3589              0.2170              0.2083        
  Char temp [K]                672.3488           1839.3731           1996.1677       
  ----------------------------------------------------------------------------------
      1   N                0.08 -0.05 -0.11    0.00  0.10 -0.05   -0.47 -0.08 -0.19   
      2   O               -0.02  0.01  0.03   -0.00 -0.06  0.03    0.47  0.08  0.18   
      3   H               -0.40  0.18  0.54    0.63 -0.14  0.27   -0.45 -0.04 -0.16   
      4   H               -0.40  0.30  0.49   -0.64 -0.28 -0.09   -0.46 -0.09 -0.14   

  Vibration                       10                  11                  12          
  Freq [cm^-1]                1674.9776           3391.2849           3520.7316       
  Irrep                           A                   A                   A           
  Reduced mass [u]              1.0998              1.0344              1.1111        
  Force const [mDyne/A]         1.8179              7.0090              8.1147        
  Turning point v=0 [a0]        0.2557              0.1853              0.1754        
  RMS dev v=0 [a0 u^1/2]        0.1896              0.1332              0.1308        
  Char temp [K]               2409.9198           4879.3040           5065.5489       
  ----------------------------------------------------------------------------------
      1   N               -0.07 -0.02 -0.04   -0.03 -0.01 -0.03   -0.00 -0.08  0.04   
      2   O                0.00 -0.00 -0.01   -0.00 -0.00 -0.00    0.00  0.00 -0.00   
      3   H                0.50 -0.21  0.45    0.26  0.66 -0.04    0.26  0.66 -0.02   
      4   H                0.51  0.46  0.15    0.24 -0.47  0.47   -0.24  0.45 -0.48   

  ==> Thermochemistry Components <==

  Entropy, S
    Electronic S            1.377 [cal/(mol K)]        5.763 [J/(mol K)]       0.00219507 [mEh/K] (multiplicity = 2)
    Translational S        36.323 [cal/(mol K)]      151.975 [J/(mol K)]       0.05788411 [mEh/K] (mol. weight = 32.0136 [u], P = 101325.00 [Pa])
    Rotational S           17.529 [cal/(mol K)]       73.343 [J/(mol K)]       0.02793503 [mEh/K] (symmetry no. = 1)
    Vibrational S           0.800 [cal/(mol K)]        3.345 [J/(mol K)]       0.00127412 [mEh/K]
  Total S                  56.029 [cal/(mol K)]      234.426 [J/(mol K)]       0.08928833 [mEh/K]
  Correction S              0.000 [cal/(mol K)]        0.000 [J/(mol K)]       0.00000000 [mEh/K]

  Constant volume heat capacity, Cv
    Electronic Cv           0.000 [cal/(mol K)]        0.000 [J/(mol K)]       0.00000000 [mEh/K]
    Translational Cv        2.981 [cal/(mol K)]       12.472 [J/(mol K)]       0.00475022 [mEh/K]
    Rotational Cv           2.981 [cal/(mol K)]       12.472 [J/(mol K)]       0.00475022 [mEh/K]
    Vibrational Cv          1.632 [cal/(mol K)]        6.829 [J/(mol K)]       0.00260100 [mEh/K]
  Total Cv                  7.594 [cal/(mol K)]       31.772 [J/(mol K)]       0.01210143 [mEh/K]
  Correction Cv             0.000 [cal/(mol K)]        0.000 [J/(mol K)]       0.00000000 [mEh/K]

  Constant pressure heat capacity, Cp
    Electronic Cp           0.000 [cal/(mol K)]        0.000 [J/(mol K)]       0.00000000 [mEh/K]
    Translational Cp        4.968 [cal/(mol K)]       20.786 [J/(mol K)]       0.00791703 [mEh/K]
    Rotational Cp           2.981 [cal/(mol K)]       12.472 [J/(mol K)]       0.00475022 [mEh/K]
    Vibrational Cp          1.632 [cal/(mol K)]        6.829 [J/(mol K)]       0.00260100 [mEh/K]
  Total Cp                  9.581 [cal/(mol K)]       40.087 [J/(mol K)]       0.01526824 [mEh/K]
  Correction Cp             0.000 [cal/(mol K)]        0.000 [J/(mol K)]       0.00000000 [mEh/K]

  ==> Thermochemistry Energy Analysis <==

  Raw electronic energy, E0
  Total E0, Electronic energy at well bottom at 0 [K]                 -131.08933188 [Eh]

  Zero-point energy, ZPE_vib = Sum_i nu_i / 2
    Electronic ZPE          0.000 [kcal/mol]        0.000 [kJ/mol]       0.00000000 [Eh]
    Translational ZPE       0.000 [kcal/mol]        0.000 [kJ/mol]       0.00000000 [Eh]
    Rotational ZPE          0.000 [kcal/mol]        0.000 [kJ/mol]       0.00000000 [Eh]
    Vibrational ZPE        16.755 [kcal/mol]       70.102 [kJ/mol]       0.02670043 [Eh]        5860.067 [cm^-1]
  Correction ZPE           16.755 [kcal/mol]       70.102 [kJ/mol]       0.02670043 [Eh]        5860.067 [cm^-1]
  Total ZPE, Electronic energy at 0 [K]                               -131.06263145 [Eh]

  Thermal Energy, E (includes ZPE)
    Electronic E            0.000 [kcal/mol]        0.000 [kJ/mol]       0.00000000 [Eh]
    Translational E         0.889 [kcal/mol]        3.718 [kJ/mol]       0.00141628 [Eh]
    Rotational E            0.889 [kcal/mol]        3.718 [kJ/mol]       0.00141628 [Eh]
    Vibrational E          16.925 [kcal/mol]       70.816 [kJ/mol]       0.02697227 [Eh]
  Correction E             18.703 [kcal/mol]       78.253 [kJ/mol]       0.02980482 [Eh]
  Total E, Electronic energy at  298.15 [K]                           -131.05952706 [Eh]

  Enthalpy, H_trans = E_trans + k_B * T
    Electronic H            0.000 [kcal/mol]        0.000 [kJ/mol]       0.00000000 [Eh]
    Translational H         1.481 [kcal/mol]        6.197 [kJ/mol]       0.00236046 [Eh]
    Rotational H            0.889 [kcal/mol]        3.718 [kJ/mol]       0.00141628 [Eh]
    Vibrational H          16.925 [kcal/mol]       70.816 [kJ/mol]       0.02697227 [Eh]
  Correction H             19.295 [kcal/mol]       80.732 [kJ/mol]       0.03074901 [Eh]
  Total H, Enthalpy at  298.15 [K]                                    -131.05858287 [Eh]

  Gibbs free energy, G = H - T * S
    Electronic G           -0.411 [kcal/mol]       -1.718 [kJ/mol]      -0.00065446 [Eh]
    Translational G        -9.348 [kcal/mol]      -39.114 [kJ/mol]      -0.01489769 [Eh]
    Rotational G           -4.338 [kcal/mol]      -18.149 [kJ/mol]      -0.00691255 [Eh]
    Vibrational G          16.687 [kcal/mol]       69.818 [kJ/mol]       0.02659239 [Eh]
  Correction G              2.590 [kcal/mol]       10.837 [kJ/mol]       0.00412769 [Eh]
  Total G, Free enthalpy at  298.15 [K]                               -131.08520419 [Eh]
  ## New Matrix (Symmetry 0) ##
  Irrep: 1 Size: 12 x 12

                 1                   2                   3                   4                   5

    1     0.58054679099021     0.12254071578743     0.26409521160743    -0.42907146357229    -0.06305298144072
    2     0.12254071578743     0.67494560075287    -0.22024058012995    -0.06798031581179    -0.09004070214467
    3     0.26409521160743    -0.22024058012995     0.29884680009765    -0.16156994429890     0.01027685103136
    4    -0.42907146357229    -0.06798031581179    -0.16156994429890     0.49670687342908     0.08000131419780
    5    -0.06305298144072    -0.09004070214467     0.01027685103136     0.08000131419780     0.06196743249856
    6    -0.15068165512131     0.01010853645714    -0.07846060053998     0.19169693584109     0.00999534922803
    7    -0.07808995542909    -0.10339277041389    -0.01827290206185    -0.03443459062777    -0.03776681180831
    8    -0.10744524133586    -0.37107104348738     0.04617452478811    -0.01679923856995     0.01018200761014
    9    -0.02339400104918     0.02053479279707    -0.02922253490263    -0.01030403598281    -0.01638089308797
   10    -0.07338537198883     0.04883237043825    -0.08425236524668    -0.03320081922902     0.02081847905123
   11     0.04795750698916    -0.21383385512082     0.16378920431048     0.00477824018394     0.01789126203597
   12    -0.09001955543695     0.18959725087574    -0.19116366465504    -0.01982295555938    -0.00389130717142

                 6                   7                   8                   9                  10

    1    -0.15068165512131    -0.07808995542909    -0.10744524133586    -0.02339400104918    -0.07338537198883
    2     0.01010853645714    -0.10339277041389    -0.37107104348738     0.02053479279707     0.04883237043825
    3    -0.07846060053998    -0.01827290206185     0.04617452478811    -0.02922253490263    -0.08425236524668
    4     0.19169693584109    -0.03443459062777    -0.01679923856995    -0.01030403598281    -0.03320081922902
    5     0.00999534922803    -0.03776681180831     0.01018200761014    -0.01638089308797     0.02081847905123
    6     0.08729441239104    -0.00730681429512    -0.01194380161623     0.00005499080114    -0.03370846642466
    7    -0.00730681429512     0.10490709237370     0.13026351399240     0.02344966647615     0.00761745368315
    8    -0.01194380161623     0.13026351399240     0.37315364201925    -0.02732511486003    -0.00601903408659
    9     0.00005499080114     0.02344966647615    -0.02732511486003     0.02689377012708     0.01024837055584
   10    -0.03370846642466     0.00761745368315    -0.00601903408659     0.01024837055584     0.09896873753469
   11    -0.00816008406895     0.01089606822979    -0.01226460614202     0.02317121515094    -0.06363181540289
   12    -0.00888880265221     0.00213004988082    -0.00690560831185     0.00227377397441     0.10771246111550

                11                  12

    1     0.04795750698916    -0.09001955543695
    2    -0.21383385512082     0.18959725087574
    3     0.16378920431048    -0.19116366465504
    4     0.00477824018394    -0.01982295555938
    5     0.01789126203597    -0.00389130717142
    6    -0.00816008406895    -0.00888880265221
    7     0.01089606822979     0.00213004988082
    8    -0.01226460614202    -0.00690560831185
    9     0.02317121515094     0.00227377397441
   10    -0.06363181540289     0.10771246111550
   11     0.20820719922688    -0.17880033539248
   12    -0.17880033539248     0.19777869333284




    Psi4 stopped on: Sunday, 20 September 2020 12:22PM
    Psi4 wall time for execution: 0:01:01.49

*** Psi4 exiting successfully. Buy a developer a beer!
Optimizer: Optimization complete!
 13 displacements needed.
 1 2 3 4 5 6 7 8 9 10 11 12 13
Warning: used thermodynamics relations inappropriate for low-frequency modes: ['467.3057']
